Cpptraj Generated Restart                                                       
 1960  0.0000000E+00
  42.5900030  32.8100014  22.5300002  42.1400023  33.3100009  23.2800007
  43.3900023  33.3100009  22.1800017  41.8600035  32.7000022  21.8400002
  43.1599998  31.5300012  23.0200005  43.4300041  30.9500003  22.1300006
  44.3900013  31.7400026  23.9100003  44.0400028  32.4700022  24.6500015
  45.3000021  32.0900011  23.4100008  44.8900032  30.4800010  24.7300005
  45.1200008  29.6600008  24.0500021  43.9900017  30.2800012  25.3200006
  46.1400032  30.6500006  25.5700016  45.9900045  31.5000010  26.2400007
  47.0600033  30.8700013  25.0300002  46.1900043  29.4500017  26.6000009
  46.1700010  28.5400009  26.0000014  45.2200031  29.5400023  27.0800018
  47.3699999  29.4200015  27.4600005  47.2900009  28.6700010  28.1300020
  48.1700039  29.2300010  26.8700004  47.7600002  30.2100015  27.9400015
  42.0300007  30.7500005  23.6800003  41.2100029  31.2600017  24.4600010
  41.9500017  29.3800020  23.4600019  42.6200008  29.0900016  22.7500010
  41.2400007  28.4300017  24.3400002  40.4100037  28.9600015  24.8000002
  40.6200027  27.2700024  23.5300016  41.4499998  26.7600012  23.0500007
  39.6900010  27.7100015  22.3699999  39.4000030  26.9200015  21.6800022
  38.7500024  28.0700016  22.7800012  40.1999998  28.4700012  21.7800021
  39.8100019  26.1800003  24.2700005  39.6400023  25.2400017  23.7500000
  40.4700041  25.7900023  25.0400019  38.9300013  26.5800023  24.7700024
  42.2700024  27.9300022  25.4000020  43.3500004  27.6200008  25.0600004
  41.9099998  28.0300021  26.6800022  41.0700035  28.4700012  27.0300007
  42.6500034  27.3500013  27.7500010  43.7000036  27.4700022  27.4700022
  42.5000000  28.1900024  29.0200019  42.6900005  27.5100017  29.8500013
  41.4900017  28.5400009  29.2500019  43.4000015  29.3800020  29.0700006
  43.0500031  30.6100011  28.4700012  42.0800018  30.7200003  28.0200005
  43.9900017  31.6700006  28.5200024  43.9300013  32.5700021  27.9200006
  45.1300001  31.6300011  29.3100023  45.9600019  32.3100019  29.3400025
  45.4300022  30.4200006  29.9900007  46.3000011  30.2200007  30.6000018
  44.4900036  29.3700004  29.9400020  44.6900034  28.4700012  30.5000019
  42.3500013  25.9000015  27.9700017  41.2400007  25.3900003  27.9000020
  43.4000015  25.1100016  28.3600020  44.2700005  25.6100011  28.2900023
  43.2600021  23.7900019  29.0400004  44.1700029  23.2200003  28.8400006
  42.4100018  23.4300017  28.4600019  42.6500034  23.9200020  30.4800010
  43.0900002  24.6800017  31.2600017  41.7900038  23.0100012  30.8200026
  41.6800022  22.2000003  30.2200007  41.0700035  23.0300021  32.1000004
  40.3700018  23.8600016  32.2200012  40.1200008  21.8200016  32.2600007
  40.7800007  20.9600019  32.1800017  39.3800020  21.7200017  31.4700007
  39.5000029  21.7100000  33.7100005  38.9900017  22.6700020  33.8100004
  40.3400040  21.6500020  34.3900013  38.6600018  20.3900003  33.9500022
  37.8000021  20.5000019  33.3000016  38.3400011  20.2200007  34.9800014
  39.3300009  19.1600013  33.5400009  39.2700028  18.9300013  32.5600004
  40.0500011  18.3800006  34.3100023  40.5299997  17.3000014  33.8000011
  40.4600000  17.1500003  32.8000021  40.9400034  16.6200006  34.4100022
  40.4100037  18.6600006  35.5400014  40.2900028  19.6100008  35.8400011
  40.8400011  17.9900014  36.1600018  42.1000004  23.1500006  33.3100009
  41.9600010  23.9200020  34.2300010  43.1500006  22.1900010  33.3100009
  43.1599998  21.5700006  32.5200009  44.1700029  22.2800016  34.3500018
  43.7600040  22.3100019  35.3500009  44.8699999  20.9500003  34.4200015
  45.5300045  20.9500003  35.2800012  45.4800034  20.7700014  33.5300016
  43.8700008  19.5600009  34.7100019  45.1999998  23.4400010  34.2900014
  45.7100010  23.7800002  35.3000021  45.4900026  23.9600015  33.0900025
  45.0200033  23.6100006  32.2700024  46.1500025  25.2900004  32.8700018
  47.1100044  25.3900003  33.3700013  46.3600016  25.4300022  31.3100004
  45.3800011  25.6000018  30.8800006  46.8400002  24.5100021  30.9700012
  47.2900009  26.5600014  31.0600019  48.2800007  26.3500023  31.4800024
  46.8600035  27.5200009  31.3600016  47.4000025  26.7900014  29.5900011
  46.2500000  26.7500019  28.8800025  48.3600044  27.2200012  29.0700006
  45.2900028  26.4500022  33.3800006  45.8800030  27.2400022  34.0800023
  43.9600039  26.4500022  33.1700015  43.4600019  25.8100009  32.5700021
  43.1200027  27.5300002  33.6900020  43.5200024  28.5000014  33.4100008
  41.6600037  27.3600006  33.2000017  41.3100004  26.4100003  33.6000013
  41.7100000  27.3600006  32.1100020  40.7200003  28.4600019  33.6800027
  40.6599998  28.2700014  34.7500014  41.2700033  29.8200011  33.4700012
  40.4600000  30.5600023  33.5000014  42.0100021  30.1000023  34.2100024
  41.7700005  29.8800015  32.5100017  39.3700027  28.3300018  33.0700016
  38.6700010  28.9800024  33.6000013  39.3600011  28.4700012  31.9900012
  38.9300013  27.3400021  33.2400012  43.2300043  27.5600004  35.2300024
  43.5800028  28.5400009  35.7700014  43.0200005  26.2600017  35.8400011
  42.7300024  25.6100011  35.1200008  43.2200003  26.0600019  37.2300029
  42.5900030  26.6800022  37.8800011  42.8100014  24.6200013  37.4900007
  42.5000000  24.5000005  38.5200024  41.9600010  24.3700004  36.8600011
  43.7200022  24.1000009  37.1800017  44.7100019  26.3900018  37.7000022
  44.9100018  26.7100024  38.8800025  45.7600021  26.3300014  36.8600011
  45.5600023  25.9100008  35.9600019  47.1500015  26.6600013  37.3300028
  47.3900032  26.3400006  38.3400011  48.2300043  25.9900022  36.4200020
  49.2500019  26.2000012  36.7400026  48.0600023  24.9200010  36.3700008
  48.0300045  26.2700009  35.3800011  47.3900032  28.1600022  37.4700022
  47.9200029  28.6100006  38.4300017  46.9700003  28.8600016  36.3200021
  46.6800022  28.2800007  35.5500007  46.7900038  30.3000021  36.3100028
  47.7000046  30.8900023  36.3700008  46.1000013  30.5800009  34.9700022
  45.6900024  31.5900016  34.9300027  46.8700027  30.4600024  34.2100024
  45.3299999  29.8400021  34.7400022  45.9500027  30.7500005  37.5500011
  46.4300013  31.4800024  38.3100009  44.8200035  30.1700020  37.8500009
  44.2200041  29.6200013  37.2500014  43.9900017  30.5400014  39.0400028
  43.9000034  31.6300011  39.0400028  42.5600004  30.0500011  38.9700007
  42.1400023  30.2600026  39.9500012  42.5300026  28.9700007  38.7900019
  41.8500042  30.7100010  37.8400016  42.3300028  30.3600025  36.9300008
  42.0100021  31.7900014  37.8700018  40.1200008  30.2500010  37.6400018
  39.5200014  31.4400005  36.4300013  38.4900022  31.2400007  36.1200023
  39.5700026  32.4600005  36.8100023  40.1000023  31.2900019  35.5100012
  44.6300030  30.1200008  40.3800011  44.3200016  30.7000017  41.4400005
  45.6100035  29.2400002  40.4900026  45.7300043  28.6900020  39.6500015
  46.3000011  28.8700008  41.8000031  45.6800032  29.0000010  42.6900005
  46.7600012  27.3600006  41.7799997  47.2600031  27.1300006  40.8400011
  45.8000040  26.8500018  41.7200041  47.5400019  26.9100022  42.9700041
  48.5300016  27.3800015  42.9500008  47.6100016  25.8400011  42.8100014
  46.8500042  27.1000004  44.3000031  45.8300018  26.7300010  44.2200041
  46.7500019  28.1200004  44.6600008  47.7000046  26.3100004  45.3100014
  48.6400032  26.8300009  45.5000019  47.9400015  25.3000021  44.9900007
  47.0200014  26.3000011  46.6300011  47.4000025  25.5000019  47.1300030
  47.3500013  27.0900011  47.1700001  46.0100031  26.3200021  46.6300011
  47.5100040  29.7900009  42.0500040  47.6400042  30.3300023  43.1700039
  48.3400011  30.1100016  41.0000038  48.0200005  29.8000026  40.0900030
  49.3500042  31.1800003  41.0000038  49.8700047  31.1500025  41.9600010
  50.4000044  31.0100007  39.9200010  50.5500031  29.9300003  39.8600030
  51.3100004  31.5800023  40.0600004  49.9200010  31.5300012  38.5700011
  49.6800041  32.5900006  38.5500026  49.0200043  30.9300017  38.4200025
  50.9300041  31.3000011  37.4600029  51.8400002  31.6500020  37.9300022
  50.6500006  31.8800020  36.5800023  50.9900045  29.8500013  37.0800018
  51.1400032  29.2900014  37.9000020  51.0000038  29.3800020  35.8700013
  50.7200003  30.0500011  34.7700024  50.3800011  30.9900022  34.8600006
  50.6800032  29.5100021  33.9200020  51.3800001  28.1000018  35.7500029
  51.5600014  27.5500011  36.5700006  51.3500023  27.5800014  34.8800015
  48.8300037  32.6200008  41.1300039  49.5300007  33.4500027  41.7100000
  47.4900007  32.9000020  40.7400036  46.9800043  32.2200012  40.2100039
  46.8100023  34.1600013  41.1400032  47.5000000  34.9700022  41.3500023
  45.9900045  34.7300005  40.0000000  45.5700016  35.6600022  40.3900003
  45.1500034  34.0900016  39.7300029  46.6700029  34.9700022  38.6700010
  46.0800028  34.9500012  37.4400020  46.9800043  35.2800012  36.5700006
  46.8600035  35.4800010  35.5200028  48.2000017  35.4100013  37.1700025
  48.9900017  35.8200026  36.7000008  48.0400038  35.1900005  38.4900022
  48.9000034  35.2500010  39.1400027  45.9100008  34.1000009  42.3100042
  45.3299999  35.0800014  42.8000021  45.7800007  32.8600025  42.8800011
  46.3500023  32.0800018  42.5900030  45.3500032  32.6600027  44.2400026
  45.7200003  33.4400010  44.9000025  45.7700014  31.7400026  44.6500015
  43.8900042  32.8200006  44.3800020  43.3300018  33.0500007  45.4600000
  43.0500031  32.7900004  43.2700014  43.4899998  32.6100016  42.3800039
  41.5900040  32.5700021  43.4000015  41.2000036  33.3200026  44.1000032
  40.8700037  32.4900007  42.0600033  39.8000026  32.5000024  42.2800016
  41.2000036  31.6700006  41.4200020  40.9800005  33.7400007  41.1000013
  42.0100021  33.9400005  40.8100033  40.0800037  33.5100007  39.8700023
  40.0699997  34.4400024  39.3100023  40.3700018  32.6900005  39.2000008
  39.1100025  33.3500028  40.3200006  40.4900026  34.9500012  41.8800020
  40.4600000  35.8400011  41.2400007  39.5100021  34.7600007  42.3100042
  41.1600018  35.1400018  42.7100039  41.1800003  31.2600017  44.1700029
  40.0500011  31.1500025  44.5600033  42.1200037  30.3000021  44.1800022
  43.0600023  30.5300021  43.8800001  42.0200014  29.2700005  45.1800013
  41.2500000  28.6200023  44.7500038  43.3900023  28.6300015  45.2700043
  44.0799999  29.3200016  45.7500029  43.7600040  28.2500005  44.3200016
  43.2200003  27.3500013  46.2000036  42.1600008  26.7200017  46.1100006
  44.1900015  26.8500018  46.7600012  41.6200018  29.7300005  46.5799999
  42.5200033  30.2600026  47.2900009  40.3800011  29.5600009  47.0100021
  39.7400022  29.0900016  46.3900042  39.7100019  29.9800014  48.2700014
  38.7000012  29.5700026  48.2500029  40.2600002  29.2300010  49.4700003
  41.2700033  29.5600009  49.6900034  40.3999996  28.1600022  49.3100023
  39.4300008  29.2300010  50.6800032  38.4300017  28.5800004  50.7400036
  39.8400021  29.8900008  51.7300034  40.7500029  30.3300023  51.7800045
  39.2000008  30.1200008  52.4800014  39.4000030  31.4500022  48.5100031
  39.2800021  31.9100022  49.6600008  39.4400024  32.3000026  47.4800014
  39.6200013  31.8500018  46.5900040  39.2400026  33.7100005  47.5400019
  39.8000026  34.1200018  48.3900023  39.7700024  34.3600011  46.2500000
  39.1300011  33.9100027  45.4900026  40.8100033  34.0900016  46.0600042
  39.5500016  35.8700013  46.1900043  38.3400011  36.3800025  45.8500004
  37.4100018  35.8300018  45.8400011  38.2100010  37.7800012  45.7200003
  37.4000025  38.4500027  45.4500008  39.4000030  38.5700011  45.9000015
  39.1800022  39.9100018  45.7900000  39.9800014  40.4500008  45.8100033
  40.6400013  38.0500007  46.1300039  41.5400028  38.6100030  46.3500023
  40.7000017  36.6300011  46.4000034  41.6900015  36.3100028  46.7000008
  37.7700019  33.9900017  47.8100014  36.9100022  33.5500026  47.1000004
  37.5400019  34.8200011  48.8700008  38.3600020  35.2500010  49.2800045
  36.2700009  35.0100017  49.5700026  36.4600015  35.3500009  50.5800009
  35.3600025  36.0300016  48.8200045  34.4100022  36.0400009  49.3500042
  35.2700019  35.6200027  47.8100014  35.8000016  37.5700021  48.5900021
  35.0600028  38.0300021  47.9300022  36.7800021  37.3700023  48.1700039
  35.9300017  38.3900023  49.8300028  35.4500008  37.9000020  50.6700039
  35.5100012  39.3700027  49.6200037  37.3900008  38.5600019  50.1400042
  37.7700019  38.0600023  50.9300041  38.1100011  39.6600008  49.8500013
  37.7000022  40.6500006  49.0700006  36.8700027  40.4800034  48.5200024
  38.2000017  41.5200043  49.1200018  39.3200016  39.8600030  50.3200006
  39.7500014  39.4000030  51.1100006  39.8500013  40.5800009  49.8300028
  35.5500007  33.6400008  49.9100018  34.3100023  33.6400008  50.1100016
  36.2300014  32.5500011  49.8600006  37.2200012  32.7100015  50.0300026
  35.7400012  31.1700010  50.2800035  34.8100019  31.2700009  50.8400011
  36.6000009  30.7700014  50.8200026  35.4600024  30.1200008  49.2200041
  34.9700022  29.0900016  49.5800018  35.7700014  30.4600024  47.9500008
  36.1000013  31.4100003  47.8600025  35.3400016  29.6200013  46.8300009
  34.6000028  28.9100003  47.2000027  34.4600010  30.5100012  45.8700037
  34.3200016  30.0100017  44.9100018  35.1700020  31.3000011  45.6400013
  33.2400012  31.1600018  46.5000010  31.9400024  30.7000017  45.9500027
  31.8500018  29.8500013  45.2800035  30.8400011  31.5100026  46.2900019
  29.9000025  31.2100005  45.8700037  30.9500003  32.7300024  46.9000006
  29.8500013  33.5500026  46.8900013  30.0100017  34.3100023  47.4600029
  32.1900010  33.1700015  47.4400043  32.2800016  34.1600013  47.8700018
  33.3100009  32.2700024  47.2000027  34.3100023  32.6600027  47.3600006
  36.5700006  28.9600015  46.2400007  37.6300025  29.5200014  46.0500002
  36.5200019  27.6300025  46.2300014  35.6000018  27.2500014  46.4300013
  37.5600028  26.6600013  46.0100031  38.3200026  26.7900014  46.7800045
  37.0400023  25.2400017  46.2900019  36.5600014  25.1900005  47.2700024
  37.8800011  24.5400023  46.2700033  36.2100029  24.7600007  45.3100014
  35.6800008  24.0400004  45.6500006  38.0800009  26.8600011  44.5700026
  37.2800016  27.2900009  43.7300014  39.2800021  26.5400004  44.1900015
  39.8100019  26.0900021  44.9300003  39.8900008  26.6700006  42.8700018
  40.1700020  27.7200007  42.7700043  41.1800003  25.8900023  42.8900003
  41.0200024  24.8500013  43.1700039  41.8100023  26.2200022  43.7100029
  41.9099998  25.9600019  41.5300035  41.2700033  25.6200004  40.7200003
  42.3800039  27.3800015  41.1100006  43.0500031  27.3100019  40.2600002
  41.5100002  27.9800010  40.8500004  42.9600000  27.7400017  41.9600010
  43.1700039  25.1000023  41.5300035  43.5600042  25.0800014  40.5100012
  43.9200020  25.6200004  42.1200037  42.9200029  24.1500020  41.9900036
  38.9100027  26.2500024  41.7600012  38.7900019  26.9400024  40.7500029
  38.3100009  25.1000023  41.9000006  38.5000014  24.6000004  42.7600002
  37.4100018  24.5300007  40.9500027  37.2400022  23.4900022  41.2300014
  37.8800011  24.4800019  39.9700022  36.0100007  25.1700020  40.6700039
  35.4500008  25.0900006  39.6900010  35.5900025  25.9300017  41.8100023
  36.1800027  26.1800003  42.5900030  34.4200015  26.8200016  41.6700029
  33.5800028  26.1400008  41.5400028  34.2200017  27.6600003  42.9600000
  33.6900020  28.5600019  42.6700020  35.1600027  27.9400015  43.4400034
  33.2000017  26.9800019  44.0100002  31.9900012  27.1000004  43.8100004
  33.7200022  26.1900020  44.9500036  34.7200012  26.0600019  44.8699999
  33.2100010  25.6600022  45.6400013  34.5900011  27.8000021  40.4600000
  33.6400008  27.8900003  39.5900011  35.6900024  28.4500003  40.1999998
  36.5200019  28.1600022  40.6900024  35.8900023  29.4100022  39.1100025
  35.0400019  30.0800014  39.0900016  37.1700025  30.1000023  39.4600010
  37.3300028  30.9100008  38.7500024  38.0300021  29.4300008  39.4100022
  37.1600008  30.7300019  40.8200026  37.8000021  30.1800013  41.9200039
  38.4600019  29.3300009  41.8300009  37.5900006  30.9400010  43.0299997
  37.7600026  30.7400012  44.0100002  36.8500018  32.0600009  42.7300024
  36.3400006  32.9600024  43.6100006  36.5100026  32.9700017  44.6700001
  35.5400014  34.0700006  43.1400013  35.2000022  34.8000026  43.8600016
  35.3300023  34.1700006  41.7500019  34.7000027  34.9900007  41.4499998
  35.8100009  33.1300020  40.9000015  35.4500008  33.2000017  39.8800015
  36.6200018  32.0400023  41.3199997  36.0200024  28.7700009  37.6400018
  35.5900025  29.2800021  36.6900015  36.7000008  27.6100016  37.6200008
  37.1300006  27.1400023  38.4100008  36.7100024  26.7200017  36.5000010
  37.1200013  27.2400022  35.6300020  37.6800013  25.5600023  36.8200016
  37.2100019  24.8500013  37.5000024  38.1400013  24.7800016  35.5800009
  38.8800025  24.0000010  35.7800007  37.3100019  24.2400002  35.1400018
  38.5200024  25.3600001  34.7400022  39.0200019  26.0300016  37.4200010
  39.6100020  25.1700020  37.7400017  39.7000027  26.6200018  36.8200016
  38.8300014  26.5400004  38.3700013  35.2600026  26.3000011  36.0500026
  34.9900007  26.2700009  34.9000025  34.3700027  25.9600019  37.0300007
  34.7100019  25.8800006  37.9800010  32.9900026  25.5500007  36.6600013
  32.9300022  24.7700024  35.9000015  32.3500013  25.0100017  37.9300022
  32.0700026  25.7900023  38.6400008  33.0800009  24.2900014  38.3100009
  30.8400011  24.0300012  37.5900006  32.1500015  26.7500019  35.9800029
  31.4000010  26.6100001  35.0000024  32.3000026  28.0000019  36.4400029
  32.9200006  28.1100011  37.2400022  31.8300009  29.1400003  35.7800007
  30.7400012  29.1100025  35.6800008  32.1500015  30.3600025  36.6000009
  31.6300011  31.2500024  36.2400007  31.8400025  30.2400017  37.6400018
  33.2200027  30.5300021  36.7100024  32.4000025  29.3400025  34.3900013
  31.6400003  29.2400002  33.4500027  33.7800026  29.3400025  34.2300010
  34.3900013  29.3900013  35.0400019  34.4100022  29.4500017  32.9500008
  33.9800024  30.3200006  32.4500012  35.8900023  29.6600008  33.2600021
  36.5000010  29.6500015  32.3500013  36.0300016  30.6400013  33.7000012
  36.1500025  28.7900019  33.8600016  34.1700006  28.3000016  31.9900012
  34.5000005  28.4200025  30.8300018  33.6000013  27.1200013  32.4000025
  33.3200026  27.1100020  33.3700013  33.1700015  26.0700011  31.4000010
  33.9700007  26.1500001  30.6500006  33.1200027  24.6300006  32.0500016
  32.4500012  24.7300005  32.9100013  34.1000009  24.4000006  32.4600005
  32.7200007  23.4700012  31.1400008  31.6500020  23.6000013  30.9500003
  32.9400015  22.5900006  31.7400026  33.4800005  23.4000015  29.7400022
  34.4900012  23.8100004  29.7900009  32.9200006  23.9700007  28.9900017
  33.5700011  21.9100022  29.4100022  32.5600004  21.5300012  29.5300007
  34.3500018  21.4900017  30.0400019  34.0700006  21.6800022  28.0100012
  33.3300018  21.9000006  27.3600006  34.8300028  22.2600007  27.6900005
  34.2400026  20.6900001  27.9100013  31.7900014  26.4000010  30.9200025
  31.6200018  26.3800001  29.6700025  30.8400011  26.7500019  31.8000007
  31.0900021  26.8200016  32.7800012  29.4400024  26.8400002  31.4000010
  29.0400004  26.1500001  30.6600022  28.4700012  26.3200021  32.5300026
  27.4500012  26.5500021  32.2100019  28.7500024  26.8200016  33.4500027
  28.6100006  24.7900009  32.5700021  28.1000018  24.0500021  31.5500021
  27.5600004  24.6300006  30.8200026  28.2700014  22.6500010  31.6100025
  27.9900002  21.9500017  30.8400011  28.9700007  22.0000005  32.6600027
  29.2200017  20.9500003  32.7600026  29.3900013  22.7800012  33.8300014
  29.8800015  22.3800015  34.7100019  29.1200018  24.2300010  33.7900019
  29.4200015  24.7800016  34.6700025  29.1300011  28.2900023  30.8800006
  28.0800009  28.4500003  30.2400017  30.0800014  29.2100024  31.0700011
  30.9700012  29.1400003  31.5500021  29.9200010  30.5400014  30.2600026
  28.8700008  30.7700014  30.1000023  30.7100010  31.7000008  30.9400010
  30.7800007  32.5800014  30.2900004  31.6900015  31.3600016  31.2600017
  29.9700022  32.3500013  32.1300006  30.5900025  33.1400013  32.5600004
  29.9400020  31.5700006  32.8900027  28.5300016  32.9000020  31.8300009
  28.1000018  33.0500007  30.7400012  27.8900003  33.3000016  32.9000020
  30.3600025  30.3700018  28.8200021  29.6800017  30.8400011  27.9600024
  31.5600014  29.7300005  28.6100006  32.0500016  29.5700026  29.4800019
  32.3000026  30.0300026  27.4300003  31.7300010  30.2000022  26.5200019
  33.2800007  31.1900020  27.6900005  32.7200007  32.0500016  28.0600023
  33.9200020  31.3700008  26.8300009  33.9500022  30.7400012  28.8600016
  34.3000007  31.4900017  29.3500018  33.1900024  28.7800002  27.0000005
  33.8100004  28.8400006  25.9600019  33.2100010  27.7100015  27.7700019
  32.5500011  27.4700022  28.4900022  34.0900016  26.5700006  27.3500013
  34.1900015  26.0200024  28.2900023  33.4000015  25.6800008  26.3200021
  33.3000016  26.2000012  25.3700018  32.5300026  25.1800013  26.7400002
  34.2100024  24.3200016  26.0000014  35.0000024  23.8100004  26.7900014
  34.0400004  23.8100004  24.8200011  33.2600021  24.0700006  24.2300010
  34.6100020  23.0400014  24.4900012  35.6300020  26.9200015  27.2100019
  36.3300014  26.4400005  26.3000011  36.1300015  27.7900004  28.0600023
  35.6100011  28.1300020  28.8500023  37.5500011  28.2000017  28.1500006
  37.6900029  28.8500023  29.0100002  38.4600019  26.9700003  28.4300017
  39.4300008  27.4400020  28.6400008  38.6900020  26.4400005  27.5000024
  37.9100013  26.0700011  29.5400023  37.9500008  24.6000004  29.4300008
  38.3800030  24.2000008  28.5200024  37.5000024  23.7500000  30.3800011
  37.4700022  22.6800013  30.4600024  36.9000006  24.2900014  31.5400004
  36.4200020  23.7000012  32.3100019  36.7500019  25.6600022  31.7400026
  36.2600017  26.0400009  32.6300025  37.2900009  26.5400004  30.7000017
  37.1000028  27.5800014  30.9300017  37.9700017  29.0400004  26.8900013
  39.1500020  29.1700006  26.7100024  37.0100021  29.6600008  26.2000012
  36.0700011  29.3500018  26.4100003  37.1800017  30.5200005  24.9700022
  38.0900025  30.2600026  24.4200015  36.0800028  30.2800012  23.9100003
  35.1600027  30.6100011  24.4000006  36.0700011  29.2000008  23.8100004
  36.2200022  31.0000014  22.6500010  37.2000027  31.7300010  22.3500013
  35.4600024  30.7400012  21.6400003  34.6900010  30.1100016  21.8200016
  35.4900026  31.2600017  20.7800007  37.3100019  32.0100021  25.3100014
  36.4000010  32.7100015  25.6600022  38.5400009  32.5100017  25.3500009
  39.3700027  31.9500017  25.2500010  38.7600017  33.9400005  25.5800009
  38.4500027  34.3100023  26.5500021  40.2100039  34.3400025  25.6800008
  40.2800035  35.4200006  25.8400011  40.9100008  33.6700010  26.7700005
  41.8000031  34.2500019  27.0100021  40.3000021  33.7400007  27.6800013
  41.1899996  32.6300025  26.6100001  41.0400009  34.1300011  24.4900012
  41.5300035  34.9600005  24.4300008  38.0400014  34.9800014  24.6200013
  37.8900027  36.0500026  24.9100018  37.7200007  34.5000005  23.3400011
  37.7300024  33.5300016  23.0500007  37.3900008  35.4600024  22.2700000
  37.7900028  36.4600015  22.4300003  37.8900027  35.0000024  20.9200001
  37.3900008  35.5900025  20.1500010  37.4300027  34.0200019  20.7300019
  39.4200015  35.1200008  20.7700014  39.7600007  34.3800020  20.0500011
  39.9800014  35.0000024  21.6900015  39.6800017  36.4400029  19.9800014
  39.2800021  36.7400026  18.8300014  40.4900026  37.3100019  20.5700016
  40.8500004  37.0700026  21.4800000  40.5700016  38.1600022  20.0200009
  35.7900023  35.6900024  22.1399999  35.3100014  36.4500022  21.3800001
  35.0500011  34.8600006  22.8900003  35.6700015  34.1800022  23.3100009
  33.6000013  34.6400023  22.8900003  33.2300019  34.2500019  21.9400001
  33.3600020  33.6000013  24.0200019  32.3500013  33.2100010  23.8900018
  34.0100026  32.7400017  23.8400006  33.4400010  34.0400004  25.0100017
  32.9200006  35.9500027  23.3200002  33.2300019  36.6500020  24.2900014
  31.8600011  36.2600017  22.4900007  31.7500019  35.5700016  21.7600012
  30.9400010  37.4000025  22.8700018  31.1000013  37.5800014  23.9300013
  31.3000011  38.7100029  22.0700002  30.4600024  39.4000030  22.0600009
  32.5800014  39.3500018  22.6600003  32.7300024  40.3900003  22.3699999
  32.4900007  39.2500019  23.7400007  33.4500027  38.7400007  22.4500012
  31.5800023  38.5600019  20.6900001  32.4700022  38.2200027  20.5800009
  29.4500017  37.0100021  22.7000022  29.0300012  36.5500021  21.7100000
  28.6600018  37.4100018  23.7200022  28.9600015  37.9200029  24.5400023
  27.2300005  37.2500014  23.7400007  27.0200014  36.7800021  22.7700019
  26.8200016  36.4100027  24.8900008  26.9700003  36.9400024  25.8400011
  27.4300003  35.5100012  24.8900008  25.3300023  36.0300016  24.8700023
  24.6800017  35.6700015  23.7800002  24.6200013  36.1700010  25.9500003
  24.9700022  36.7700028  26.6800022  23.8000011  35.5900025  26.0400009
  26.6000009  38.6200023  23.9100003  27.0400023  39.4400024  24.7100019
  25.5400014  38.8600016  23.2000017  25.1100016  38.1900024  22.5800014
  24.8600006  40.1400042  23.0800009  25.5000019  40.9800005  23.3500004
  24.3200016  40.3200006  21.6800022  23.9600015  39.3400025  21.3800001
  25.2000022  40.4500008  21.0700011  23.2900000  41.4300013  21.4500022
  22.4400020  41.3199997  22.1100020  22.9000020  41.5400028  20.4400015
  23.8100004  42.8800011  21.6900015  24.3800020  42.9600000  22.6200008
  22.9600000  43.5600042  21.7100000  24.7600007  43.3700037  20.6500006
  25.6500006  42.9000044  20.6500006  24.4300008  44.2100000  19.6700013
  25.2800012  44.4500017  18.7000012  26.0500002  43.8000011  18.6000013
  24.9700022  45.0600004  17.9600012  23.3800006  44.9100018  19.6200013
  22.6400018  44.8000002  20.3000021  23.1800008  45.6700039  18.9700007
  23.6700010  40.1100016  24.1000009  22.8600001  39.2000008  24.0700006
  23.3800006  41.2400007  24.7500014  24.0000010  42.0300007  24.8000002
  22.2300005  41.3900042  25.6100011  21.9200015  40.3999996  25.9600019
  22.6700020  42.2399998  26.8800020  21.8099999  42.5200033  27.4800014
  23.2000017  43.1700039  26.6800022  23.7000012  41.5700006  27.7300024
  24.8400021  41.4300013  27.3400021  23.2300019  41.0100031  28.7600017
  22.2500014  40.8100033  28.9100003  23.8600016  40.3600025  29.2100024
  21.0600019  42.2399998  24.9800014  21.3700008  43.1100035  24.1900015
  19.8700011  42.0200014  25.3900003  19.7300005  41.1899996  25.9500003
  18.6800003  42.7400017  24.8400021  18.7600005  42.7500010  23.7500000
  17.4000013  41.9800043  25.1600003  16.6300011  42.7200031  24.9500012
  17.2300005  40.6500006  24.4100022  16.4600003  40.0400019  24.8700023
  16.8400013  40.8700037  23.4100008  18.1500006  40.0699997  24.4100022
  17.3400009  41.7000008  26.5700006  16.4000010  41.5300035  26.6600013
  18.6500013  44.2600012  25.1500010  17.7900004  44.9700022  24.5700002
  19.6300006  44.8400021  25.8700013  20.3299999  44.2200041  26.2700009
  19.6800005  46.2000036  26.2200022  18.7800014  46.7900038  26.0600019
  19.7800004  46.3000011  27.7500010  18.8800013  45.8100033  28.1400013
  19.5500004  47.3200035  28.0600023  21.0400009  45.8500004  28.4900022
  21.9000006  45.2300024  27.8800011  21.0800004  46.1500025  29.7000003
  20.8000016  47.0200014  25.6300020  21.1100006  48.1300020  25.9900022
  21.4400005  46.3500023  24.6700001  21.2500000  45.3900003  24.4400001
  22.6700020  46.8900013  24.0600014  22.5900006  47.9500008  23.8000011
  22.7000022  46.3100004  23.1300020  24.0200019  46.6200018  24.7100019
  25.0900006  46.8100023  24.0800023  24.0500021  46.0300016  25.9400010
  23.3400011  45.9400034  26.6500020  25.2900004  45.4500008  26.4700007
  26.1500001  46.0700035  26.2300014  25.2300000  45.5300045  28.0400014
  24.8500013  46.5000010  28.3700013  26.2100005  45.2100039  28.4100008
  24.3100023  44.5600033  28.5300016  23.4600019  44.8300028  28.1800008
  25.7200003  44.1000032  25.8300018  25.0500011  43.6100006  24.8600006
  26.9700003  43.6500025  26.0300016  27.5200009  44.1900015  26.6800022
  27.6500010  42.4500036  25.5300021  26.8100023  41.7900038  25.3300023
  28.5300016  43.0200005  24.4000006  29.1900015  43.7700033  24.8200011
  29.4400024  42.0000029  23.8400006  30.1800013  42.3900032  23.1500006
  30.0900006  41.5500021  24.5900011  28.9100003  41.1899996  23.3400011
  27.8400016  43.5200024  23.2600021  27.0100021  43.8600016  23.6000013
  28.5100007  41.9700003  26.7500019  29.0600014  42.7200031  27.4900007
  28.7100005  40.6500006  26.8000007  28.3400011  40.0800037  26.0500002
  29.6600008  39.9900007  27.7300024  29.8800015  40.7300043  28.5000014
  28.9800024  38.8200021  28.4600019  29.6800017  38.4700012  29.2200017
  28.7900019  37.9700017  27.8000021  27.6200008  39.2900014  29.0900016
  26.6700006  38.4900022  28.9600015  27.6000023  40.2700043  29.7600007
  31.0600019  39.7100019  26.9800019  31.0900021  39.1100025  25.9400010
  32.1900010  40.1999998  27.5800014  32.1700025  40.6700039  28.4700012
  33.4900022  40.1500034  26.8900013  33.4200025  39.9500012  25.8200002
  34.0700006  41.5900040  26.9300008  35.1400018  41.3800001  26.8800020
  33.9200020  42.0200014  27.9300022  33.4300017  42.4700022  25.8300018
  33.9000010  42.6999998  24.5100021  34.8500013  42.2700024  24.2500019
  33.1700015  43.6100006  23.6600018  33.5800028  43.7300014  22.6700020
  32.0900011  44.3100023  24.1100001  31.4100003  45.2400017  23.3300018
  30.8100009  45.7600021  23.8800001  31.5800023  44.0799999  25.4400015
  30.7100010  44.5900011  25.8200002  32.2400022  43.1200027  26.2300014
  31.8500018  42.9100037  27.2200012  34.3200016  39.1000009  27.6600003
  34.5300007  39.1400027  28.8200021  34.6900010  38.1000018  26.7800021
  34.2200017  38.0400014  25.9000015  35.6700015  37.0400023  27.0500016
  36.6300011  37.4800014  27.3300004  36.0300016  36.6100025  26.1100006
  35.4500008  35.9400010  28.1200004  34.3400025  35.6300020  28.4200025
  36.5000010  35.2900028  28.5800004  37.4800014  35.4700017  28.3900023
  36.4000010  33.8900018  29.1000009  35.9800029  33.4000015  28.2300019
  37.7900028  33.3300018  29.3600011  38.3700013  33.5100007  28.4500003
  38.5200024  34.1400027  30.4600024  39.5900011  33.9700007  30.3400016
  38.4000015  35.2200007  30.3900003  38.2300019  33.8400006  31.4600015
  37.8800011  31.7600012  29.6500015  37.4300027  31.3100004  28.7600017
  37.1500015  31.4700007  30.4100013  39.2600012  31.2000012  29.9100018
  39.2900014  30.1200008  29.7700024  39.9600029  31.7100024  29.2500019
  39.5500016  31.3900018  30.9500003  35.5100012  33.7500024  30.2800012
  34.6800017  32.7800012  30.3200006  35.4600024  34.7400022  31.1500025
  36.1300015  35.4900026  31.0500026  34.5200014  34.8100019  32.2900009
  34.3700027  33.7700009  32.5800014  35.2900028  35.4000020  33.5700011
  34.5700026  35.1900005  34.3600011  35.3500009  36.4900017  33.4800005
  36.6800022  34.8500013  33.9000010  37.3800015  35.1200008  33.1000018
  36.6600013  33.2900023  33.8800025  37.6600027  32.8900027  34.0400004
  35.9800029  32.9000020  34.6400023  36.3800025  32.9800010  32.8700018
  37.1400023  35.4300022  35.2300024  38.1600022  35.1400018  35.4600024
  37.2000027  36.5000010  35.0800014  36.4100027  35.1700020  36.0000014
  33.1300020  35.3900027  32.0300007  32.1700025  35.2200007  32.8100014
  32.9200006  36.0200024  30.8400011  33.7500024  36.0300016  30.2600026
  31.6300011  36.6400027  30.3500009  31.8800020  37.1500015  29.4200015
  30.6400013  35.5500007  30.0100017  29.6400023  36.0000014  29.9700022
  30.5800009  34.7900009  30.7800007  30.8700013  34.8000026  28.7500024
  30.1100016  34.0200019  28.7100005  31.8900013  34.4400024  28.6200023
  30.7300019  35.6300020  27.4100018  29.7200012  35.5100012  26.7500019
  31.7400026  36.3600016  27.0200014  32.5900006  36.5100026  27.5500011
  31.6100025  36.9400024  26.2100005  31.1700010  37.6300025  31.3800025
  30.0400019  37.6200008  32.0100021  31.9900012  38.7300014  31.5600014
  32.8600025  38.5100007  31.1000013  31.7600012  39.9600029  32.2500014
  31.0400009  39.7500014  33.0500007  33.0900025  40.3900003  32.9800010
  33.6300015  40.7900000  32.1300006  32.7100015  41.4000034  34.0300012
  33.6100006  41.9400024  34.3300009  31.9500017  42.1200037  33.7300014
  32.2600007  40.8800030  34.8700023  33.8200021  39.1400027  33.5900021
  34.1500020  38.4700012  32.8000021  33.1700015  38.6100030  34.2800021
  35.0200009  39.5600009  34.3700027  35.4500008  38.6400008  34.7800016
  35.7200027  40.1000023  33.7500024  34.7300005  40.1400042  35.2400017
  31.1100006  40.9899998  31.4400005  31.6500020  41.3500023  30.3500009
  29.9800014  41.5100002  31.8700004  29.6300006  41.0600042  32.7000022
  29.1100025  42.4300003  31.0900021  29.0500021  42.0800018  30.0600004
  27.8200006  42.4500036  31.8700004  27.9300022  42.7800035  32.9000020
  27.4000025  41.4400005  31.8900013  26.7400002  43.2500029  31.2500024
  26.5200019  44.3800020  31.6700006  26.2600017  42.8500032  30.1500010
  26.6100001  41.9800043  29.7700024  25.6000018  43.5100031  29.7700024
  29.6400023  43.8500023  30.9000015  30.3300023  44.4099998  31.7500019
  29.1800022  44.5500040  29.8200011  28.6400008  44.0300035  29.1400003
  29.4900012  46.0100031  29.5600009  30.4500008  46.2600040  30.0200009
  29.7700024  46.0700035  28.0900002  30.4900026  45.3200006  27.7500010
  30.1600003  47.0700026  27.8800011  28.6600018  45.8200026  27.3400021
  28.7300014  46.2300014  26.4800024  28.5700011  47.1300030  30.1000023
  28.8600016  48.2900000  29.8700023  27.4200010  46.8300009  30.7700014
  27.1300006  45.9000015  31.0400009  26.6500020  47.8800011  31.3500023
  26.6600013  48.7400007  30.6900024  25.1200008  47.4800014  31.3700008
  24.9500012  46.7400026  32.1500015  24.8400021  46.9500017  30.4600024
  24.1400003  48.6000013  31.6500020  24.3900013  49.5800018  31.2400007
  24.1000009  48.8500023  32.7100015  22.7200007  48.1900024  31.2000012
  22.5700021  47.2300005  31.6900015  22.5700021  47.9500008  30.1500010
  21.7800021  49.1700029  31.7200017  22.0500016  49.9400043  32.3100019
  20.4400015  49.1000032  31.6300011  19.7700012  48.3100033  30.9200025
  20.2500010  47.4900007  30.5800009  18.7600005  48.2900000  31.0200024
  19.8600006  50.0900030  32.2300005  20.4200006  50.8100033  32.6600027
  18.8800013  50.2300024  32.0400023  27.2900009  48.2700014  32.6700020
  27.2000003  49.5500040  33.0500007  27.8700018  47.4300003  33.5100007
  27.7200007  46.4700031  33.2400012  28.3600020  47.8700018  34.8800015
  28.2700014  48.9400005  35.0600028  27.6100016  46.9300032  35.8500028
  27.7200007  47.3300028  36.8600011  27.9900002  45.9100008  35.9000015
  26.1000013  46.8200016  35.6600022  25.3700018  45.7700014  35.3300023
  25.7000017  44.7600031  35.1300025  24.0300012  46.1000013  35.0800014
  23.2500005  45.5800009  34.7000027  23.9200020  47.4400043  35.2100015
  22.7300000  48.2400036  35.1200008  21.7900014  47.8400040  34.7800016
  22.8299999  49.6300030  35.4600024  21.9100022  50.1800013  35.3100014
  24.1100001  50.1100016  35.8300018  23.9500022  51.1400032  36.1200023
  25.2700019  49.3100023  35.8800006  26.1500001  49.8200035  36.2500024
  25.1100016  47.9100037  35.7000017  29.8700023  47.8200006  34.9300027
  30.5600023  48.6600018  35.5300021  30.5300021  46.7800045  34.4000006
  29.9600005  46.2600040  33.7500024  31.8800020  46.3600016  34.8200011
  32.1700025  46.6700029  35.8200026  31.8000007  44.8600006  35.0000024
  32.7000022  44.5700026  35.5400014  31.8900013  44.4000006  34.0200019
  30.6000018  44.2900038  35.7200027  29.5500016  43.6800003  35.1700020
  29.4600010  43.5400009  34.1000009  28.6700010  43.3200026  36.1300015
  27.7900004  42.8700018  35.9300017  28.9500022  43.7700033  37.3900008
  28.4200025  43.5000038  38.6100030  27.5000024  42.9600000  38.7200022
  29.0800023  44.1400003  39.7100019  28.6500025  43.9300013  40.6700039
  30.2700019  44.8699999  39.5200014  30.6700015  45.2500010  40.4500008
  30.9200025  44.9100018  38.2700014  31.8700004  45.3900003  38.0900025
  30.3000021  44.4000006  37.1800017  32.8900027  46.7200041  33.7600017
  33.7500024  47.6200008  34.2600012  32.8000021  46.4500046  32.4600005
  32.0200014  45.8900023  32.1600008  33.6400008  47.0500040  31.4300013
  34.4700027  47.6000023  31.8800020  34.3700027  45.9000015  30.6400013
  34.9200010  45.1600027  31.2100005  35.1600027  46.2900019  30.0000024
  33.3800006  44.9700022  29.5600009  32.9700017  48.1200027  30.5400014
  31.7100024  48.0800009  30.4400015  33.7600017  49.0400028  29.9800014
  34.7600007  48.9400005  30.0900006  33.2900023  49.9000025  28.8700008
  32.2100019  49.8300028  28.9500022  33.6700010  51.4000034  29.2400002
  34.6200013  51.4100027  29.7800016  32.9100013  51.8500042  29.8700023
  33.6000013  52.2400045  27.9800010  32.5300026  52.7900028  27.7000022
  34.6300006  52.3500013  27.1200013  35.5700016  52.1100044  27.4000025
  34.4400024  53.0100012  26.3700008  33.8200021  49.4200039  27.4500012
  34.9700022  49.0400028  27.4000025  32.8600025  49.3800020  26.4500022
  31.9600010  49.5500040  26.8500018  32.9900026  49.1400003  25.0300002
  34.0700006  48.9900017  25.0500011  32.2800016  47.9100037  24.6500015
  32.7100015  47.0800018  25.2100015  32.3100019  47.8000021  23.5600019
  30.7500005  47.8800011  24.8700023  30.0600004  46.9300032  24.8400021
  30.2300024  49.1500044  25.0400019  32.9700017  50.3700018  24.1700006
  33.1800008  50.4300022  22.9600000  32.6400018  51.4400005  24.7600007
  32.7300024  51.3400030  25.7600021  32.4300027  52.7400017  24.0500021
  33.1200027  52.8500032  23.2200003  32.6400018  53.4700012  24.8300004
  31.0100007  52.8300047  23.5100007  30.4800010  53.9600039  23.5200000
  30.2500010  51.7400026  23.2800007  30.8100009  50.9000015  23.3300018
  28.9900017  51.7000008  22.5500011  28.7200022  52.7500010  22.3800015
  29.1100025  51.0300016  21.1700010  29.9900007  51.4900017  20.7000017
  28.2800007  51.2900019  20.5100012  29.3100023  49.5300007  21.2200022
  28.4200025  49.0600014  21.6400003  30.2200007  49.2100000  21.7200017
  29.4100022  49.1000032  19.6900010  30.3900003  49.3700027  19.2900014
  28.6600018  49.6200037  19.1100013  29.2300010  47.6400042  19.5300007
  29.9600005  46.9900036  19.7700012  28.0400014  47.2000027  19.2200005
  27.8300023  45.8800030  19.0200007  28.6100006  45.2500010  19.1000009
  26.8800020  45.5700016  18.8900006  26.8200016  47.7700043  19.1800010
  26.7500019  48.7200022  19.5000005  26.0500002  47.2400045  18.8100004
  27.8100014  50.9900045  23.2700014  26.7500019  51.0200024  22.7600002
  28.0800009  50.5700016  24.5200014  28.9900017  50.3300047  24.8900008
  26.9900012  50.3900003  25.4500008  26.1600018  49.9400043  24.8900008
  27.4200010  49.4600010  26.6000009  28.3700013  49.8200035  26.9900012
  26.4000010  49.1800022  27.7400017  26.7000008  48.4000015  28.4300017
  26.4100003  50.0600004  28.3900023  25.4100013  49.0100002  27.3200011
  27.6400018  48.1700039  26.0100007  28.4800005  48.2800007  25.5800009
  26.6200018  51.7500019  26.0700011  27.5000024  52.4100018  26.6200018
  25.3000021  52.0900011  26.1200023  24.1700006  51.4600039  25.4400015
  23.6400008  50.9500027  26.2500024  24.4100022  50.8300018  24.5900011
  23.3300018  52.6600027  24.9100018  22.2700000  52.4100018  24.8100019
  23.7500000  52.9800034  23.9600015  23.5700011  53.6200047  26.0700011
  22.8400016  53.3300018  26.8300009  23.3600020  54.6600008  25.7900023
  24.9400020  53.4300041  26.6100001  25.6300020  54.1500044  26.1800003
  25.0300002  53.6000013  28.1300020  24.5600009  52.7400017  28.8700008
  25.6500006  54.7100019  28.5700011  26.1100006  55.3600025  27.9500008
  25.8200002  55.0800037  29.9900007  24.7800016  55.0600004  30.3200006
  26.5300012  55.9000015  30.0500011  26.4900017  54.0000010  30.9200025
  26.5400004  54.1500044  32.0600009  27.2900009  53.0500031  30.3200006
  27.2300005  52.9900026  29.3200016  28.1600022  52.1000004  31.0600019
  27.6000023  51.2600040  31.4600015  29.1700006  51.4100027  30.1800013
  29.9000025  52.0800018  29.7300005  28.6200023  51.0000038  29.3300009
  29.7700024  50.4400015  30.9900022  29.5800018  49.5900011  30.5900025
  29.0200019  52.6900005  32.2300005  29.7400022  53.6600018  32.0700026
  28.9800024  52.0300007  33.4300017  28.4800005  51.1500025  33.4500027
  29.5300007  52.4900007  34.6900010  29.3000007  53.5600042  34.6200013
  28.6400008  51.8900013  35.9400010  29.0000010  52.3600006  36.8500018
  28.6300015  50.8100033  36.0900021  27.2000003  52.3400021  35.6900024
  26.6300011  52.0200014  36.5600014  26.7900014  51.8300009  34.8200011
  26.9700003  53.8500023  35.5500007  27.0200014  54.1700029  34.5100021
  27.7300024  54.3900013  36.1100006  25.6400013  54.2600012  36.0400009
  25.5600023  54.2000008  37.0500016  24.5500016  54.4500017  35.2400017
  24.5300007  54.3800020  33.9600015  25.4200006  54.2800045  33.5100007
  23.7600017  54.7200012  33.3900023  23.4000015  54.7700024  35.8600020
  23.3000016  54.8000050  36.8600011  22.6300001  54.9000025  35.2200007
  31.0300016  52.3200035  34.9100018  31.5300012  52.9900026  35.8600020
  31.7500019  51.5500021  34.0900016  31.4000010  51.1000013  33.2600021
  33.1500006  51.5100002  34.3200016  33.4600019  50.7300043  33.6400008
  33.8100004  52.7900028  33.6200023  33.2100010  53.5500002  34.1400027
  33.2600021  52.9100037  32.6900005  35.2700019  52.9500008  33.6200023
  35.9600019  52.1400023  32.9800010  35.9000015  54.0000010  34.1700006
  35.4100013  54.5200014  34.8800015  36.9100022  54.0400028  34.2200017
  33.6400008  51.0400009  35.6900024  34.7500014  51.3800001  36.1200023
  32.9100013  50.1600027  36.4500022  32.0900011  49.8300028  35.9600019
  33.2700014  49.7800016  37.7900028  33.4700012  50.6400013  38.4300017
  32.0900011  48.9300013  38.3000016  32.4000025  48.4500027  39.2300010
  31.9000006  48.1000042  37.6300025  30.7200003  49.6000004  38.6200023
  30.2700019  50.0000000  37.7100015  29.7200012  48.5800028  39.1900015
  28.7200022  49.0200043  39.2200017  29.6400023  47.6500034  38.6300015
  29.9200010  48.3600044  40.2400017  30.8600020  50.6700039  39.6600008
  29.8600006  51.0900021  39.7600007  31.2100005  50.2900028  40.6300020
  31.3600016  51.6000032  39.3900013  34.6000028  49.0800047  37.9300022
  35.1700020  49.1300011  39.0200019  35.0200009  48.3100033  36.8900013
  34.4000006  48.4100008  36.0900021  36.3500023  47.7300024  36.8200016
  36.6500020  47.4300003  37.8300023  36.2200022  46.3900042  36.0100007
  36.8800020  46.3800001  35.1500010  35.2000022  46.2600040  35.6400013
  36.4400029  44.9300003  37.0400023  37.4900007  48.6400032  36.3600016
  38.6900020  48.3000040  36.5200019  37.1900010  49.7700024  35.7500029
  36.2200022  50.0000000  35.6200027  38.1200027  50.7600021  35.1400018
  37.4600029  51.5200043  34.7500014  38.9300013  51.5000010  36.2100029
  39.8000026  50.8500004  36.3800025  38.3300018  51.6900015  37.1000028
  39.4100022  52.8500032  35.6400013  38.7400007  53.6100006  35.0100017
  40.6300020  53.1600046  35.9300017  41.0900021  52.5500011  36.5900016
  40.8800030  54.1300011  35.7500029  39.0200019  50.2100039  33.9000010
  40.0300026  50.8400011  33.5700011  38.5300016  49.1800022  33.2700014
  37.6000023  48.8500023  33.4900022  39.2000008  48.6500025  32.0600009
  40.0800037  49.2600012  31.8300009  39.7800016  47.2500038  32.2600007
  40.2800035  47.0400000  31.3200021  40.8000040  47.2000027  33.3900023
  41.2900019  46.2300014  33.4600019  41.6400003  47.8200006  33.0700016
  40.3299999  47.5300026  34.3200016  38.6800027  46.2100029  32.4800014
  37.9200029  46.2900019  31.7100024  38.2400012  46.3000011  33.4800005
  39.1700029  44.7600031  32.3100019  38.2900023  44.1400003  32.4300027
  39.6900010  44.6000004  31.3700008  39.9100018  44.5100021  33.0800009
  38.3200026  48.7300014  30.7400012  37.1000028  48.6500025  30.8700013
  38.9100027  48.7800026  29.5300007  40.3600025  48.8900042  29.2400002
  40.8500004  48.1000042  29.8100019  40.7400036  49.8300028  29.6500015
  40.6000042  48.7100029  27.7300024  40.8800030  47.7000046  27.4400020
  41.3000011  49.4600010  27.3600006  39.1900015  49.0500021  27.2000003
  39.0400028  48.5400009  26.2500024  39.0800023  50.1400042  27.1800017
  38.2400012  48.6200047  28.2500005  37.3500013  49.2400026  28.2300019
  37.7900028  47.1300030  28.2800007  38.5800028  46.2500000  28.5000014
  36.5800023  46.8600035  27.7500010  36.0000014  47.6700020  27.6100016
  36.0400009  45.5600023  27.4100018  35.8700013  45.0200033  28.3400011
  34.6800017  45.7600021  26.7600012  34.4000006  44.8400021  26.2400007
  34.8400021  46.5000010  25.9900022  33.4000015  46.2700033  27.9400015
  36.9300008  44.7300005  26.4400005  37.0400023  43.4899998  26.6100001
  37.7100015  45.4000044  25.5700016  37.5300026  46.3800001  25.3700018
  38.7300014  44.8500013  24.6800017  38.3100009  43.9499998  24.2200017
  39.1100025  45.7900000  23.5900021  38.3100009  46.0200024  22.8900003
  39.8300028  45.2400017  22.9800010  39.7400022  46.9400024  24.1600013
  40.7000017  46.9600010  24.1500020  40.0500011  44.4099998  25.4400015
  40.9300041  43.8300037  24.7700024  40.2200031  44.5500040  26.7500019
  39.5700026  45.0700045  27.3100019  41.2700033  43.9700031  27.5700021
  42.1200037  43.7500000  26.9200015  41.6499996  44.8800039  28.6500025
  42.4100018  44.4700003  29.3100023  42.1700001  45.7100010  28.1700015
  40.8400011  45.1200008  29.3400025  40.9500027  42.5699997  28.1300020
  41.7600012  41.7600012  28.4300017  39.6400023  42.3500013  28.3400011
  38.9100027  43.0299997  28.2100010  39.1500020  41.0000038  28.7400007
  39.7400022  40.7400036  29.6200013  37.6900029  40.9600019  29.1000009
  37.3300028  39.9400020  29.2400002  37.3000026  41.3100004  28.1400013
  37.1500015  41.8700027  30.3100014  37.5700021  42.8600025  30.1600003
  35.6700015  42.0500040  30.3800011  35.3400016  42.7100039  31.1800003
  35.2700019  42.4900007  29.4600010  35.1500010  41.1100006  30.5300021
  37.7800012  41.2200022  31.5900016  37.4200010  41.7100000  32.5000024
  37.4600029  40.1800013  31.6300011  38.8600016  41.2600040  31.4700007
  39.5300007  39.9400020  27.7500010  39.9400020  38.8500023  28.0900002
  39.3300009  40.2300024  26.4200020  39.0500021  41.1800003  26.2100005
  39.5100021  39.3000031  25.2900004  38.9300013  38.4400010  25.6300020
  39.0000010  39.7800016  23.9700007  39.1200018  38.9800024  23.2400012
  39.5500016  40.6500006  23.6200023  37.4900007  40.1100016  23.8000011
  37.2900009  40.9899998  24.4200015  37.2500014  40.4500008  22.3300004
  36.1700010  40.6000042  22.3100019  37.7500010  41.3600016  22.0000005
  37.4900007  39.6100020  21.6700006  36.5900016  38.9800024  24.2600012
  35.5700016  39.1800022  23.9100003  36.9600010  38.0100012  23.9200020
  36.5300012  38.9500022  25.3500009  40.9500027  38.8600016  25.1300001
  41.2100029  38.0100012  24.2900014  41.9000006  39.3600011  25.9200001
  41.6200018  39.9100018  26.7200017  43.2400036  38.9000010  25.9800005
  43.7400007  39.2700028  25.0900006  43.8800001  39.7200012  27.1000004
  43.4000015  39.4300008  28.0300021  43.6800003  40.7600021  26.8200016
  45.2900028  39.5200014  27.2800016  45.3600025  39.6700025  28.2300019
  43.3700037  37.4300027  26.0600019  42.5300026  36.7700028  26.6500020
  44.4200039  36.8800020  25.4800010  44.9900007  37.4200010  24.8400021
  44.8300028  35.4800010  25.7000017  43.9800024  34.8200011  25.8200002
  45.6800032  35.0300026  24.5500016  46.1800003  34.1100025  24.8300004
  46.4600039  35.7700014  24.3800020  44.8300028  34.8200011  23.4400010
  44.8200035  35.6900024  23.0300021  45.6500006  35.3400016  27.0200014
  45.8000040  34.2400026  27.4800014  46.0800028  36.4600015  27.6500010
  45.9800005  37.3300028  27.1400023  46.4400005  36.5700006  29.0600014
  46.7800045  35.6200027  29.4800019  47.6000023  37.5600028  29.2600012
  47.5400019  38.4700012  28.6700010  48.5100031  37.0600009  28.9300013
  47.8000021  37.8600025  30.6800008  48.2700014  38.9600015  31.0900021
  47.5100040  36.9400024  31.5300012  45.2200031  36.9300008  29.8900008
  44.8200035  38.0900025  29.9000025  44.6200037  35.9400010  30.5000019
  45.0200033  35.0200009  30.3800011  43.5200024  36.0500026  31.4900017
  42.7600002  36.6500020  31.0000014  42.8800011  34.6800017  31.7500019
  42.0100021  34.8100019  32.3900008  42.2500038  34.2100024  30.4000020
  41.8000031  33.2400012  30.5900025  41.7000008  35.0400019  29.9600005
  43.0400038  34.0100026  29.6800017  43.9100027  33.6400008  32.2800016
  44.3700027  34.0100026  33.2000017  44.8200035  33.5600019  31.6800022
  43.3800030  32.1500015  32.4600005  44.1000032  31.4300013  32.8500009
  42.5400019  32.1200013  33.1600022  42.9100037  31.9100022  31.5100026
  43.8800001  36.6700006  32.8000021  43.0400038  36.9000006  33.6600018
  45.1700020  37.1000028  33.0700016  45.8600044  36.8500018  32.3700023
  45.5800009  37.8200006  34.2400026  45.3900003  37.3300028  35.1900005
  47.1200037  38.1800008  34.3000007  47.2900009  39.0300012  33.6300015
  47.6400042  38.6000013  35.6600022  48.7100029  38.7900019  35.6000018
  47.1600008  39.4800019  36.0900021  47.4500036  37.7900028  36.3700008
  47.9100037  37.0600009  34.0300012  47.8800011  36.9400024  33.0800009
  44.8400021  39.1300011  34.3500018  44.4300032  39.5900011  35.4400015
  44.6800041  39.8800015  33.2400012  45.3200006  39.5400023  32.5400019
  43.8100004  41.0400009  33.1700015  44.1300011  41.7500019  33.9300013
  44.0700006  41.7100000  31.8300009  43.3100033  42.4400043  31.5600014
  44.9800014  42.3100042  31.8000007  44.1500044  40.9100008  31.0800004
  42.2700024  40.8200026  33.5500026  41.6499996  41.5600014  34.2100024
  41.7700005  39.6000028  33.0900025  42.3000002  38.8700008  32.6500010
  40.3999996  39.0500021  33.5700011  39.5800018  39.7300029  33.3200026
  40.0300026  37.7400017  32.8200006  39.1500020  37.2500014  33.2600021
  40.8900023  37.0900011  32.7000022  39.5900011  38.1600022  31.5600014
  40.3500032  38.1800008  30.9700012  40.2900028  38.7400007  35.0700021
  39.2800021  39.0400028  35.6900024  41.3500023  38.1600022  35.6700015
  42.1200037  37.7400017  35.1600027  41.5100002  37.8300023  37.0900011
  40.6500006  37.2300029  37.3700023  42.7300024  37.0800018  37.3500013
  43.6199999  37.5600028  36.9300008  42.6700020  35.6300020  36.7300010
  43.2900000  34.9600005  37.3200011  41.6499996  35.2600026  36.8500018
  43.0000019  35.7200027  35.7000017  42.9800034  36.8500018  38.8900018
  43.7300014  36.0800028  39.0600014  43.4100008  37.7100015  39.4000030
  42.0300007  36.5700006  39.3500018  41.4100027  39.1300011  37.8900027
  40.5900002  39.2200017  38.7900019  42.2700024  40.1700020  37.4800014
  42.9600000  40.0200033  36.7600012  42.1900034  41.2800026  38.3300018
  42.3100042  40.9500027  39.3600011  43.4899998  42.2100019  38.0200028
  43.3100033  43.0900002  38.6400008  43.3800030  42.6300001  37.0100021
  44.6700001  41.4600039  38.4500027  44.9600029  41.4200020  39.6600008
  45.5700016  41.1100006  37.5700021  45.1999998  41.0600042  36.6300011
  46.3700008  40.5299997  37.7800012  40.9400034  42.1300030  38.3000016
  40.7500029  42.7600002  39.3000031  40.0300026  41.8900013  37.4000025
  40.1400042  41.1800003  36.6900015  38.7100029  42.5200033  37.4100018
  38.7000012  43.4899998  37.9000020  38.3000016  42.7300024  35.9500027
  38.3900023  41.7600012  35.4600024  39.0100026  43.4300041  35.5100012
  36.6000009  43.4200001  35.8100009  37.7000022  41.7100000  38.1100011
  36.9700027  42.2900009  39.0500021  37.6400018  40.4100037  38.0000019
  38.2200027  40.0500011  37.2500014  36.8100023  39.5400023  38.7400007
  35.7800007  39.8100019  38.5300016  36.8200016  38.1300020  38.1500030
  35.8900023  37.5600028  38.2700014  36.9400024  38.1900024  37.0700026
  37.7000022  37.5300026  38.3900023  36.9300008  39.5400023  40.2900028
  36.0400009  39.5200014  41.0000038  38.2000017  39.8500013  40.7300043
  38.9300013  39.7300029  40.0400019  38.4900022  40.1000023  42.1700001
  38.3100009  39.2500019  42.8200006  40.0100040  40.2400017  42.3600006
  40.3200006  40.7500029  43.2800007  40.4800034  40.8200026  41.5600014
  40.7300043  38.8500023  42.2200012  40.8100033  38.4400010  41.2100029
  40.2600002  38.1000018  42.8500032  42.1200037  39.0100026  42.6999998
  42.2600031  39.4200015  43.7000036  42.7400017  39.6700025  42.0800018
  42.7300024  37.5900006  42.7400017  42.5900030  37.1000028  41.7799997
  42.4300003  36.9800019  43.5900021  44.2000008  37.7400017  42.9600000
  44.7100019  36.8700027  43.0400038  44.7000027  38.2100010  42.2200012
  44.3000031  38.3200026  43.7900019  37.9000020  41.3199997  42.7700043
  37.6500010  41.4300013  43.9900017  37.4300027  42.2300005  41.8800020
  37.5500011  42.1700001  40.8700037  36.6100025  43.3900023  42.3100042
  36.8800020  43.6700010  43.3300018  36.8400025  44.5700026  41.3100004
  36.4500022  45.5300045  41.6700029  36.3600016  44.3600035  40.3500032
  38.3700013  44.8500013  41.1300039  38.9400029  44.0200043  40.7100010
  38.7600017  45.1100016  42.1200037  38.4800029  46.1300039  40.2900028
  37.9000020  46.9800043  40.6400013  38.0400014  45.9100008  39.3200016
  39.9700022  46.4400005  40.0200033  40.5200005  45.5900002  39.6200013
  40.2700043  46.8600035  40.9800005  40.0100040  47.5100040  39.0100026
  40.9700012  47.8000021  38.9000010  39.5700026  47.1500015  38.1800008
  39.6300030  48.3000040  39.5200014  35.1400018  43.0100012  42.4700022
  34.4400024  43.7600040  43.0700016  34.6600008  41.8500042  41.9400024
  35.3600025  41.1600018  41.7300034  33.2900023  41.5300035  41.6100025
  32.6600027  42.4200010  41.7300034  32.9900026  41.2200022  40.0900030
  33.3500028  40.1999998  39.9500012  31.5200019  41.2000036  39.7900009
  31.4500022  40.9300041  38.7400007  30.9700012  40.4700041  40.3800011
  31.1700010  42.2200012  39.9700022  33.6800027  42.2900009  39.2100024
  34.6900010  42.6000023  39.4700027  33.1800008  43.2400036  39.4200015
  33.5100007  42.0600033  37.7500010  34.2400026  42.5200033  37.0900011
  33.5500026  41.0200024  37.4300027  32.5200009  42.4000025  37.4300027
  32.6800013  40.5000019  42.5300026  31.4400005  40.6200027  42.9100037
  33.3700013  39.5700026  43.0800009  34.3300009  39.3400025  42.8500032
  32.8300023  38.6500025  44.0799999  31.8200016  38.3400011  43.8400030
  33.6700010  37.4200010  44.0400028  33.8600016  37.1400023  43.0000019
  35.0800014  37.6500010  44.6400023  35.6200027  36.7000008  44.6600008
  35.6000018  38.2100010  43.8700008  35.1700020  38.1600022  45.6000042
  33.0200005  36.2300014  44.7200012  33.7000012  35.4000020  44.8800039
  32.6500010  36.5700006  45.6900024  32.2000027  35.8400011  44.1200018
  32.8500009  39.3100023  45.5000019  32.2800016  38.8000011  46.4100027
  33.5100007  40.4800034  45.5500031  34.0400004  40.8900023  44.8000002
  33.5300016  41.2600040  46.7800045  33.3700013  40.6700039  47.6800013
  34.9000025  41.8800020  47.0000029  34.9900007  42.2700024  48.0100012
  35.0000024  42.6900005  46.2800026  35.9000015  40.8599997  46.7700005
  36.3200021  41.0900021  45.9400034  32.5300026  42.4700022  46.7100000
  32.5000024  43.2700014  47.6000023  31.5700006  42.5400019  45.6700039
  31.4100003  41.7900038  45.0200033  30.6900024  43.7600040  45.4800034
  31.2000012  44.6400023  45.8700037  30.2800012  43.7600040  43.9600039
  30.0100017  42.7100039  43.8600016  31.1800003  44.0400028  43.4100008
  29.0600014  44.7000027  43.7100029  28.1700015  44.2000008  43.0800009
  29.2300010  45.9700012  44.0000010  29.5600009  43.5600042  46.4300013
  29.6400023  44.0000010  47.5400019  28.5100007  42.7300024  46.0900021
  28.5100007  42.1400023  45.2700043  27.3700023  42.6900005  46.8600035
  26.7600012  43.6000013  46.8800020  27.4100018  42.6000023  47.9500008
  26.3800001  41.4700031  46.6500044  25.3200006  41.3500023  47.2900009
  26.7700005  40.5000019  45.8300018  27.5500011  40.6700039  45.2200031
  26.0800004  39.1600013  45.7100010  25.4700017  39.0300012  46.6000032
  25.0600004  39.2800021  44.5200014  25.5700016  39.1000009  43.5700035
  24.5600009  40.2500010  44.4700003  23.9600015  38.3500028  44.7500038
  23.8100004  37.7900028  45.7300043  23.1800008  38.0000019  43.6300039
  23.4100008  38.4600019  42.7600002  22.3100019  37.5400019  43.8600016
  26.9900012  37.9800010  45.5300045  26.6000009  36.8900013  45.6400013
  28.2900023  38.3400011  45.1800013  28.6500025  39.2800021  45.0900030
  29.3700004  37.3400021  45.1600027  29.3000007  36.7000008  46.0300016
  30.3300023  37.8400016  45.1600027  29.4900012  36.6500020  43.7400007
  29.5700026  37.3300028  42.7500010  29.7400022  35.3300023  43.7400007
  29.7300005  34.6700025  44.5100021  29.7200012  34.5800018  42.4600029
  30.4100013  35.1300025  41.8100023  30.2300024  33.2100010  42.5600004
  30.2700019  32.7900004  41.5600014  29.6400023  32.4700022  43.0900002
  31.6800022  33.1700015  43.0100012  31.7600012  33.3100009  44.0900040
  32.2700024  33.9700007  42.5600004  32.6500010  31.6000009  42.7900028
  32.8700018  31.3200021  41.0300016  32.0200014  30.7500005  40.6500006
  32.7700019  32.2400022  40.4500008  33.7900019  30.8000016  40.7600021
  28.3500004  34.4900012  41.8200016  28.3000016  34.3600011  40.6200027
  27.2600007  34.7700024  42.5100040  27.1000004  34.8500013  43.5000038
  25.9300017  34.7800016  41.8800020  25.7500005  33.7600017  41.5500021
  24.8700023  35.2800012  42.8800011  23.9500022  35.5600023  42.3600006
  25.2300000  36.0700011  43.5300016  24.5700002  34.2300010  43.9400005
  24.0800023  33.1500006  43.6000013  25.1400018  34.4100022  45.1000023
  25.6200004  35.2700019  45.3100014  25.3700018  33.5900021  45.6599998
  25.7600021  35.7200027  40.6800032  24.7000003  35.6800008  40.0100040
  26.7500019  36.6600013  40.4500008  27.5300002  36.6700006  41.1000013
  26.5800023  37.5600028  39.3200016  25.6900001  38.1700015  39.4600010
  27.8200006  38.5400009  39.4300008  27.6400018  39.4000030  38.7800026
  27.7900004  38.9600015  40.4400015  28.7600017  38.0700016  39.1400027
  26.5000010  36.9100022  37.8800011  25.6000018  37.2200012  37.1200013
  27.4100018  35.9900022  37.5200009  28.0800009  35.6700015  38.2000017
  27.4400020  35.1500010  36.3500023  27.4600005  35.7200027  35.4200006
  28.7400007  34.3500018  36.3100028  28.8100004  33.6400008  35.4800010
  28.8200021  33.5600019  37.0500016  29.9600005  35.2200007  36.2500024
  30.4500008  35.8900023  35.1900005  30.0600004  35.9400010  34.1800022
  31.6300011  36.4800024  35.4200006  32.3100019  37.0700026  34.9700022
  32.0700026  36.0500026  36.7700028  33.2900023  36.2500024  37.4800014
  34.0300012  36.8500018  36.9800019  33.4400010  35.6700015  38.6800027
  34.3200016  35.7600021  39.3000031  32.4300027  34.8500013  39.2400026
  32.5300026  34.3000007  40.1600027  31.1800003  34.6600008  38.4900022
  30.4500008  33.9900017  38.9200020  31.0100007  35.3300023  37.2200012
  26.2400007  34.1300011  36.2300014  26.0500002  33.2600021  37.0700026
  25.4900002  34.1500020  35.0600028  25.9200001  34.8100019  34.4200015
  24.3300009  33.3200026  34.8700023  23.7300014  33.5900021  35.7300019
  23.4200001  33.7700009  33.6000013  22.7900004  34.5600009  34.0300012
  24.3400002  34.1800022  32.4500012  23.7900019  34.1600013  31.5100026
  24.6500015  35.2200007  32.4800014  25.1600003  33.4800005  32.2900009
  22.5100017  32.6400018  33.1900024  21.8400002  32.8900027  32.3700023
  23.1100011  31.8200016  32.7900004  21.9600010  32.2100019  34.0200019
  24.6300006  31.8700004  35.0500011  23.9400005  31.0700011  35.6900024
  25.6900001  31.4300013  34.3900013  26.2900019  32.1300006  33.9800024
  26.0400009  30.0800014  34.3400025  25.2100015  29.4300008  34.0500021
  27.0500016  29.8700023  33.2200027  27.0800018  28.7800002  33.1400013
  26.7000008  30.2600026  32.2700024  27.9800010  30.3700018  33.5000014
  26.4700007  29.4900012  35.7000017  26.3700008  28.3100009  36.0100007
  26.9900012  30.3600025  36.5700006  27.1800017  31.3100004  36.2600017
  27.2700024  30.0100017  37.9300022  27.7600002  29.0400004  37.9200029
  28.3400011  30.8900023  38.5200024  27.9200006  31.8700004  38.7100029
  29.1700006  31.0400009  37.8300023  28.9200020  30.4100013  39.7900009
  29.8600006  29.5100021  39.9600029  30.4000020  29.1300011  39.1100025
  29.9500012  29.1600013  41.2600040  30.6300020  28.5400009  41.6700029
  29.1000009  29.9000025  42.0500040  28.7300014  29.7300005  43.4000015
  29.4300008  29.0700006  43.8900042  27.6800013  30.5400014  43.9000034
  27.5100017  30.4300022  44.9600029  27.0500016  31.4700007  43.1100035
  26.2200022  32.0300007  43.5200024  27.2800016  31.4700007  41.7400026
  26.6200018  32.0200014  41.0800028  28.3500004  30.6400013  41.1700010
  26.0400009  29.7900009  38.8500023  26.0000014  28.7300014  39.4800019
  25.1200008  30.7100010  38.7100029  25.1900005  31.5600014  38.1700015
  23.8200021  30.3500009  39.2500019  23.9200020  30.3000021  40.3400040
  22.7700019  31.5100026  38.8900018  21.8200016  31.0000014  39.0800023
  22.7200007  31.5800023  37.8100014  22.8900003  32.7400017  39.7100019
  23.6300015  33.3900023  39.2500019  23.1700015  32.6100016  40.7600021
  21.5600014  33.6300015  39.6300030  21.7000008  34.4800019  40.3000021
  20.7900000  33.1500006  40.2500010  21.1500001  33.9900017  38.2700014
  20.3800011  33.4600019  37.8900027  21.7300010  34.8400021  37.4500012
  21.1800003  34.9800014  36.3000011  20.2900004  34.6500015  35.9700012
  21.6400003  35.6800008  35.7200027  22.8700018  35.4800010  37.7400017
  23.2500005  35.4300022  38.6700010  23.2400012  36.1900020  37.1200013
  23.2500005  28.9900017  38.7700009  22.8500009  28.2500005  39.6100020
  23.2100010  28.6200023  37.4400020  23.5400009  29.3800020  36.8600011
  22.3699999  27.5700021  36.9900012  21.6900015  27.4000025  37.8300023
  21.6300011  28.2300019  35.7200027  21.2900019  27.3300004  35.2000022
  22.3400021  28.7200022  35.0500011  20.5200005  29.1600013  36.0900021
  20.6000018  29.8200011  37.1000028  19.5200014  29.3400025  35.3000021
  19.3800008  28.7300014  34.5000005  18.7300014  29.7900009  35.7200027
  23.0100012  26.1900020  36.6100025  22.2500014  25.2500010  36.2300014
  24.2800021  26.0200024  36.6600013  24.7100019  26.8300009  37.1000028
  24.9800014  24.8500013  36.2000012  24.2700005  24.0200019  36.2700009
  25.3700018  24.9700022  34.7100019  26.1100006  24.2600012  34.3300009
  25.9300017  25.8600020  34.4100022  24.1300011  24.9300003  33.8000011
  23.3600020  25.6500006  34.0700006  23.8200021  23.8800001  33.8300014
  24.4500017  25.2900004  32.3700023  23.7700009  24.7300005  31.7100024
  25.3800011  24.8200011  32.0400023  24.4800019  26.7400002  32.1700025
  24.0500021  27.3000002  32.8900027  24.9300003  27.3100019  31.1200023
  25.3700018  26.7300010  30.0600004  25.2100015  25.7300019  30.0800014
  25.7400012  27.1000004  29.2000008  24.9700022  28.6300015  30.9300017
  24.4900012  29.2300010  31.5900016  25.3300023  28.9600015  30.0500011
  26.2800002  24.3700004  37.0200014  26.9800019  23.4700012  36.6300011
  26.3900018  24.9800014  38.2900023  25.6500006  25.6600022  38.3000016
  27.6300025  24.7600007  39.1200018  27.9300022  23.7200022  39.0500021
  28.6900020  25.8000016  38.7500024  29.5200014  25.6600022  39.4500017
  28.3600020  26.8400002  38.7700009  29.4000006  25.4400015  37.1300006
  27.2300005  25.0400019  40.6300020  27.5900006  24.2200017  41.4200020
  26.6100001  26.1900020  41.0200024  26.6000009  26.8300009  40.2300024
  25.9200001  26.4600015  42.3000002  26.7100024  26.4900017  43.0500031
  25.1200008  27.7800012  42.1700001  24.5100021  27.8200006  41.2700033
  25.7800007  28.6400008  42.1700001  24.2300010  28.1200004  43.4000015
  24.7700024  27.8900003  44.3200016  23.4100008  27.4200010  43.2800007
  23.7900019  29.5600009  43.4500027  23.1300020  29.8000026  42.6200008
  24.7100019  30.1400018  43.4300041  22.8900003  30.0800014  44.6500015
  23.6300015  30.3200006  45.4100037  22.2000003  29.2800021  44.9200010
  22.1900010  31.3600016  44.4000006  21.9100022  31.7600012  45.2800035
  22.7400017  32.0600009  43.9200020  21.4100003  31.1800003  43.7800026
  25.1100016  25.2500010  42.5900030  24.1000009  25.0500011  41.9000006
  25.5500007  24.4400001  43.5700035  26.3400006  24.7300005  44.1200018
  24.7900009  23.2200003  44.0000010  23.7800002  23.2300019  43.5900021
  24.7600007  23.1600022  45.0900030  25.4300022  21.8400002  43.5500002
  24.9700022  20.8600020  44.0300035  26.5600014  21.9000006  42.8700018
  27.0200014  22.7800012  42.7200031  27.2200012  20.7000017  42.3300028
  26.6100001  19.8100007  42.4600029  27.5500011  20.7300019  40.8200026
  28.0300021  19.8100007  40.4900026  26.2500024  20.9300017  39.9500012
  26.3200021  20.8899999  38.8700008  25.6700015  20.0200009  40.1500034
  25.7800007  21.8500018  40.2900028  28.4600019  21.8000007  40.4500008
  28.1000018  22.6100016  40.8000040  28.4300017  20.1200008  43.1200027
  28.7400007  20.6800008  44.2400026  29.1500020  19.2300010  42.5600004
  28.8500023  18.5600007  41.8600035  30.5600023  18.7500012  43.0800009
  30.5500007  18.8700008  44.1600037  30.7600021  17.2600007  42.9500008
  30.8400011  16.8500006  41.9400024  29.9700022  16.8300009  43.5700035
  31.9100022  16.6800010  43.6600018  31.8800020  15.4500008  43.9300013
  32.9100013  17.4500012  43.9900017  31.6100025  19.6000004  42.2900009
  32.1800017  19.1200006  41.3000011  31.7900014  20.8000016  42.7700043
  31.3500023  21.0900021  43.6300039  32.6800013  21.7600012  42.1000004
  32.3600006  21.6900015  41.0600042  32.3500013  23.1200004  42.6800013
  32.9000020  23.8300014  42.0700026  30.8400011  23.4100008  42.6100016
  30.6700015  24.3500018  43.1300020  30.6000018  23.4200001  41.5400028
  30.2500010  22.6100016  43.0600023  32.9000020  23.2700014  44.1200018
  32.4300027  24.1200018  44.6200037  32.7600026  22.4000001  44.7500038
  33.9500022  23.5700011  44.0000010  34.1600013  21.3300014  42.2399998
  34.9700022  22.0300007  41.5900040  34.6200013  20.4000020  43.0299997
  34.0200019  19.7800004  43.5500002  36.0100007  19.8800004  43.0600023
  36.6000009  20.7900000  42.9800034  36.2200022  19.1400003  44.3500042
  35.6900024  18.1900012  44.3000031  35.7800007  19.8800004  45.0200033
  37.6800013  18.7200010  44.7300005  38.3900023  19.5200014  44.5100021
  37.9400015  17.8400004  44.1500044  37.7900028  18.4200013  46.1900043
  38.0000019  19.3000007  47.0000029  37.7400017  17.1000004  46.6400003
  37.5100017  16.4500010  45.9100008  37.8100014  16.8500006  47.6100016
  36.3400006  19.0400004  41.8000031  37.5400019  18.9200008  41.4300013
  35.3600025  18.4200013  41.2000036  34.3800020  18.5500014  41.4300013
  35.4600024  17.6100004  39.9600029  35.8800006  16.6700006  40.3299999
  34.0800023  17.4000013  39.3900013  34.2300010  16.8100011  38.4900022
  33.4500027  16.8300009  40.0900030  33.5800028  18.3000004  39.0500021
  36.4300013  18.1600010  38.9300013  37.2600007  17.4600005  38.3400011
  36.3500023  19.5200014  38.7300014  35.7800007  20.0999999  39.3300009
  37.2000027  20.2300000  37.7800012  37.2300029  19.6000004  36.8900013
  36.5700006  21.5700006  37.4400020  37.0000029  22.0300007  36.5500021
  36.6300011  22.3200011  38.2200027  35.0600028  21.5400004  37.2200012
  34.1700006  21.7000008  38.2200027  34.4200015  22.0000005  39.2200017
  32.9200006  21.3300014  37.6300025  32.1000004  21.3499999  38.2100010
  32.9600024  20.9000015  36.3500023  32.0600009  20.4000020  35.4300022
  31.0600019  20.2200007  35.8000016  32.5400019  19.8900008  34.1900015
  31.8100023  19.3700004  33.5900021  33.8800025  20.0999999  33.8800025
  34.2700005  19.6600008  32.9800010  34.7800016  20.7200003  34.7800016
  35.8400011  20.8300018  34.6000028  34.4200015  21.1800003  36.0300016
  38.6900020  20.4500008  38.1000018  39.4600010  20.8400011  37.2500014
  39.1200018  20.0800014  39.2700028  38.3800030  19.8400009  39.9100018
  40.5000019  20.0500011  39.7000027  41.2200022  20.2600002  38.9200020
  40.8000040  21.1000013  40.8100033  41.8000031  21.1100006  41.2300014
  40.7200003  22.5100017  40.1500034  40.7300043  23.2800007  40.9200001
  41.6000032  22.6900005  39.5300007  39.8500013  22.5400019  39.4900012
  39.8600030  20.9500003  42.0300007  39.7900009  19.9000013  42.2900009
  38.8800025  21.3200021  41.7300034  40.3800011  21.6800022  43.3000040
  39.6600008  21.6100001  44.1100025  41.3100004  21.1900020  43.5900021
  40.6599998  22.7300000  43.1800032  41.0200024  18.6300004  40.0699997
  42.1099997  18.5200012  40.6200027  40.2600002  17.5600004  39.8000026
  39.3100023  17.7300012  39.4900012  40.6300020  16.1400008  39.7900009
  41.3400030  15.9900010  40.6000042  39.5200014  15.0900006  39.8900008
  40.1000023  14.1800010  39.7400022  38.9600015  15.0900006  38.9600015
  38.7400007  15.2200007  41.1400032  38.5300016  16.2800002  41.3000011
  39.1300011  14.8900008  42.1000004  37.4300027  14.5700002  41.1400032
  37.5700021  13.5000002  40.9600019  36.8600011  14.8200011  40.2400017
  36.4900017  14.7500002  42.3200035  36.9900012  14.6100008  43.1900024
  35.2300024  14.8400009  42.4800014  34.3300009  14.7200012  41.5400028
  34.5800018  14.5100009  40.5800009  33.3600020  14.6300006  41.8000031
  34.7100019  15.0600004  43.6800003  35.2400017  15.0300002  44.5400000
  33.7600017  15.4000008  43.7500000  41.4900017  15.8600008  38.5100007
  41.2300014  16.5700006  37.5000024  42.5000000  14.9900007  38.5000014
  42.5800037  14.5900011  39.4200015  43.4700012  14.8200011  37.4600029
  43.0000019  14.9800003  36.5000010  44.0600014  13.9100003  37.5900006
  44.6500015  15.8800006  37.5700021  45.7600021  15.5200005  37.5200009
  44.2500019  17.1700013  37.6900029  43.2800007  17.4100006  37.5400019
  45.2400017  18.3100009  37.8600025  45.9200001  18.2500005  37.0100021
  44.3800020  19.5500004  37.8500009  45.1200008  20.3500009  37.7600026
  43.9600039  19.6700013  38.8500023  43.0800009  19.8000014  36.6300011
  46.0400009  18.2000005  39.1300011  45.4500008  18.2500005  40.2400017
  47.3699999  18.0700004  38.9900017  47.7700043  18.2100010  38.0700016
  48.2700014  18.0800009  40.1200008  47.6400042  18.0600011  41.0100031
  49.1900015  16.9100010  40.0400019  49.8300028  17.1000004  39.1800022
  48.7000036  15.9400010  40.1300001  49.9400043  16.7800009  41.3600016
  50.4800034  15.8500004  41.5000010  49.2700005  16.4600003  42.1700001
  50.9100008  17.9000008  41.7900038  50.9700012  17.8400004  42.8800011
  50.6500006  18.9300013  41.5799999  52.3200035  17.6800013  41.3800001
  52.6300049  16.7400002  41.5799999  53.1900024  18.5500014  40.9500027
  54.4500017  18.2000005  40.6800032  54.8900032  17.3100007  40.8500004
  55.0300026  18.9800012  40.3800011  52.7800035  19.7400010  40.5400038
  51.8700027  19.8800004  40.9600019  53.5100031  20.4299998  40.4400015
  48.8100004  19.5500004  40.0900030  49.7000027  19.6500015  39.1200018
  48.2800007  20.4800010  40.7300043  47.3400021  20.3400016  41.0800028
  48.7500000  21.9100022  40.5900002  48.9800024  21.9800019  39.5300007
  47.7300024  22.9900002  40.9400034  48.1500006  23.9900017  40.8400011
  47.5000000  22.9400015  42.0100021  46.2600040  23.1100011  40.2900028
  45.9100008  24.0800023  40.6100035  46.4000034  22.9500008  38.8000011
  45.4200029  23.0900002  38.3300018  47.2200012  23.5400009  38.4000015
  46.6400003  21.8900013  38.6700010  45.4400015  22.0700002  40.9200001
  44.3800020  22.2200012  40.7100010  45.6599998  21.0700011  40.5400038
  45.6100035  22.0200014  42.0000029  50.2000046  22.1300006  41.1000013
  50.7500029  21.1600018  41.6900015  50.8200026  23.2300019  40.8900023
