Cpptraj Generated Restart                                                       
 1946
  42.5900000  32.8100000  22.5300000  42.1400000  33.3100000  23.2800000
  43.3900000  33.3100000  22.1800000  41.8600000  32.7000000  21.8400000
  43.1600000  31.5300000  23.0200000  43.4300000  30.9500000  22.1300000
  44.3900000  31.7400000  23.9100000  44.0400000  32.4700000  24.6500000
  45.3000000  32.0900000  23.4100000  44.8900000  30.4800000  24.7300000
  45.1200000  29.6600000  24.0500000  43.9900000  30.2800000  25.3200000
  46.1400000  30.6500000  25.5700000  45.9900000  31.5000000  26.2400000
  47.0600000  30.8700000  25.0300000  46.1900000  29.4500000  26.6000000
  46.1700000  28.5400000  26.0000000  45.2200000  29.5400000  27.0800000
  47.3700000  29.4200000  27.4600000  47.2900000  28.6700000  28.1300000
  48.1700000  29.2300000  26.8700000  47.7600000  30.2100000  27.9400000
  42.0300000  30.7500000  23.6800000  41.2100000  31.2600000  24.4600000
  41.9500000  29.3800000  23.4600000  42.6200000  29.0900000  22.7500000
  41.2400000  28.4300000  24.3400000  40.4100000  28.9600000  24.8000000
  40.6200000  27.2700000  23.5300000  41.4500000  26.7600000  23.0500000
  39.6900000  27.7100000  22.3700000  39.4000000  26.9200000  21.6800000
  38.7500000  28.0700000  22.7800000  40.2000000  28.4700000  21.7800000
  39.8100000  26.1800000  24.2700000  39.6400000  25.2400000  23.7500000
  40.4700000  25.7900000  25.0400000  38.9300000  26.5800000  24.7700000
  42.2700000  27.9300000  25.4000000  43.3500000  27.6200000  25.0600000
  41.9100000  28.0300000  26.6800000  41.0700000  28.4700000  27.0300000
  42.6500000  27.3500000  27.7500000  43.7000000  27.4700000  27.4700000
  42.5000000  28.1900000  29.0200000  42.6900000  27.5100000  29.8500000
  41.4900000  28.5400000  29.2500000  43.4000000  29.3800000  29.0700000
  43.0500000  30.6100000  28.4700000  42.0800000  30.7200000  28.0200000
  43.9900000  31.6700000  28.5200000  43.9300000  32.5700000  27.9200000
  45.1300000  31.6300000  29.3100000  45.9600000  32.3100000  29.3400000
  45.4300000  30.4200000  29.9900000  46.3000000  30.2200000  30.6000000
  44.4900000  29.3700000  29.9400000  44.6900000  28.4700000  30.5000000
  42.3500000  25.9000000  27.9700000  41.2400000  25.3900000  27.9000000
  43.4000000  25.1100000  28.3600000  44.2700000  25.6100000  28.2900000
  43.2600000  23.7900000  29.0400000  44.1700000  23.2200000  28.8400000
  42.4100000  23.4300000  28.4600000  42.6500000  23.9200000  30.4800000
  43.0900000  24.6800000  31.2600000  41.7900000  23.0100000  30.8200000
  41.6800000  22.2000000  30.2200000  41.0700000  23.0300000  32.1000000
  40.3700000  23.8600000  32.2200000  40.1200000  21.8200000  32.2600000
  40.7800000  20.9600000  32.1800000  39.3800000  21.7200000  31.4700000
  39.5000000  21.7100000  33.7100000  38.9900000  22.6700000  33.8100000
  40.3400000  21.6500000  34.3900000  38.6600000  20.3900000  33.9500000
  37.8000000  20.5000000  33.3000000  38.3400000  20.2200000  34.9800000
  39.3300000  19.1600000  33.5400000  39.2700000  18.9300000  32.5600000
  40.0500000  18.3800000  34.3100000  40.5300000  17.3000000  33.8000000
  40.4600000  17.1500000  32.8000000  40.9400000  16.6200000  34.4100000
  40.4100000  18.6600000  35.5400000  40.2900000  19.6100000  35.8400000
  40.8400000  17.9900000  36.1600000  42.1000000  23.1500000  33.3100000
  41.9600000  23.9200000  34.2300000  43.1500000  22.1900000  33.3100000
  43.1600000  21.5700000  32.5200000  44.1700000  22.2800000  34.3500000
  43.7600000  22.3100000  35.3500000  44.8700000  20.9500000  34.4200000
  45.5300000  20.9500000  35.2800000  45.4800000  20.7700000  33.5300000
  43.8700000  19.5600000  34.7100000  45.2000000  23.4400000  34.2900000
  45.7100000  23.7800000  35.3000000  45.4900000  23.9600000  33.0900000
  45.0200000  23.6100000  32.2700000  46.1500000  25.2900000  32.8700000
  47.1100000  25.3900000  33.3700000  46.3600000  25.4300000  31.3100000
  45.3800000  25.6000000  30.8800000  46.8400000  24.5100000  30.9700000
  47.2900000  26.5600000  31.0600000  48.2800000  26.3500000  31.4800000
  46.8600000  27.5200000  31.3600000  47.4000000  26.7900000  29.5900000
  46.2500000  26.7500000  28.8800000  48.3600000  27.2200000  29.0700000
  45.2900000  26.4500000  33.3800000  45.8800000  27.2400000  34.0800000
  43.9600000  26.4500000  33.1700000  43.4600000  25.8100000  32.5700000
  43.1200000  27.5300000  33.6900000  43.5200000  28.5000000  33.4100000
  41.6600000  27.3600000  33.2000000  41.3100000  26.4100000  33.6000000
  41.7100000  27.3600000  32.1100000  40.7200000  28.4600000  33.6800000
  40.6600000  28.2700000  34.7500000  41.2700000  29.8200000  33.4700000
  40.4600000  30.5600000  33.5000000  42.0100000  30.1000000  34.2100000
  41.7700000  29.8800000  32.5100000  39.3700000  28.3300000  33.0700000
  38.6700000  28.9800000  33.6000000  39.3600000  28.4700000  31.9900000
  38.9300000  27.3400000  33.2400000  43.2300000  27.5600000  35.2300000
  43.5800000  28.5400000  35.7700000  43.0200000  26.2600000  35.8400000
  42.7300000  25.6100000  35.1200000  43.2200000  26.0600000  37.2300000
  42.5900000  26.6800000  37.8800000  42.8100000  24.6200000  37.4900000
  42.5000000  24.5000000  38.5200000  41.9600000  24.3700000  36.8600000
  43.7200000  24.1000000  37.1800000  44.7100000  26.3900000  37.7000000
  44.9100000  26.7100000  38.8800000  45.7600000  26.3300000  36.8600000
  45.5600000  25.9100000  35.9600000  47.1500000  26.6600000  37.3300000
  47.3900000  26.3400000  38.3400000  48.2300000  25.9900000  36.4200000
  49.2500000  26.2000000  36.7400000  48.0600000  24.9200000  36.3700000
  48.0300000  26.2700000  35.3800000  47.3900000  28.1600000  37.4700000
  47.9200000  28.6100000  38.4300000  46.9700000  28.8600000  36.3200000
  46.6800000  28.2800000  35.5500000  46.7900000  30.3000000  36.3100000
  47.7000000  30.8900000  36.3700000  46.1000000  30.5800000  34.9700000
  45.6900000  31.5900000  34.9300000  46.8700000  30.4600000  34.2100000
  45.3300000  29.8400000  34.7400000  45.9500000  30.7500000  37.5500000
  46.4300000  31.4800000  38.3100000  44.8200000  30.1700000  37.8500000
  44.2200000  29.6200000  37.2500000  43.9900000  30.5400000  39.0400000
  43.9000000  31.6300000  39.0400000  42.5600000  30.0500000  38.9700000
  42.1400000  30.2600000  39.9500000  42.5300000  28.9700000  38.7900000
  41.8500000  30.7100000  37.8400000  42.3300000  30.3600000  36.9300000
  42.0100000  31.7900000  37.8700000  40.1200000  30.2500000  37.6400000
  39.5200000  31.4400000  36.4300000  38.4900000  31.2400000  36.1200000
  39.5700000  32.4600000  36.8100000  40.1000000  31.2900000  35.5100000
  44.6300000  30.1200000  40.3800000  44.3200000  30.7000000  41.4400000
  45.6100000  29.2400000  40.4900000  45.7300000  28.6900000  39.6500000
  46.3000000  28.8700000  41.8000000  45.6800000  29.0000000  42.6900000
  46.7600000  27.3600000  41.7800000  47.2600000  27.1300000  40.8400000
  45.8000000  26.8500000  41.7200000  47.5400000  26.9100000  42.9700000
  48.5300000  27.3800000  42.9500000  47.6100000  25.8400000  42.8100000
  46.8500000  27.1000000  44.3000000  45.8300000  26.7300000  44.2200000
  46.7500000  28.1200000  44.6600000  47.7000000  26.3100000  45.3100000
  48.6400000  26.8300000  45.5000000  47.9400000  25.3000000  44.9900000
  47.0200000  26.3000000  46.6300000  47.4000000  25.5000000  47.1300000
  47.3500000  27.0900000  47.1700000  46.0100000  26.3200000  46.6300000
  47.5100000  29.7900000  42.0500000  47.6400000  30.3300000  43.1700000
  48.3400000  30.1100000  41.0000000  48.0200000  29.8000000  40.0900000
  49.3500000  31.1800000  41.0000000  49.8700000  31.1500000  41.9600000
  50.4000000  31.0100000  39.9200000  50.5500000  29.9300000  39.8600000
  51.3100000  31.5800000  40.0600000  49.9200000  31.5300000  38.5700000
  49.6800000  32.5900000  38.5500000  49.0200000  30.9300000  38.4200000
  50.9300000  31.3000000  37.4600000  51.8400000  31.6500000  37.9300000
  50.6500000  31.8800000  36.5800000  50.9900000  29.8500000  37.0800000
  51.1400000  29.2900000  37.9000000  51.0000000  29.3800000  35.8700000
  50.7200000  30.0500000  34.7700000  50.3800000  30.9900000  34.8600000
  50.6800000  29.5100000  33.9200000  51.3800000  28.1000000  35.7500000
  51.5600000  27.5500000  36.5700000  51.3500000  27.5800000  34.8800000
  48.8300000  32.6200000  41.1300000  49.5300000  33.4500000  41.7100000
  47.4900000  32.9000000  40.7400000  46.9800000  32.2200000  40.2100000
  46.8100000  34.1600000  41.1400000  47.5000000  34.9700000  41.3500000
  45.9900000  34.7300000  40.0000000  45.5700000  35.6600000  40.3900000
  45.1500000  34.0900000  39.7300000  46.6700000  34.9700000  38.6700000
  46.0800000  34.9500000  37.4400000  46.9800000  35.2800000  36.5700000
  46.8600000  35.4800000  35.5200000  48.2000000  35.4100000  37.1700000
  48.9900000  35.8200000  36.7000000  48.0400000  35.1900000  38.4900000
  48.9000000  35.2500000  39.1400000  45.9100000  34.1000000  42.3100000
  45.3300000  35.0800000  42.8000000  45.7800000  32.8600000  42.8800000
  46.3500000  32.0800000  42.5900000  45.3500000  32.6600000  44.2400000
  45.7200000  33.4400000  44.9000000  45.7700000  31.7400000  44.6500000
  43.8900000  32.8200000  44.3800000  43.3300000  33.0500000  45.4600000
  43.0500000  32.7900000  43.2700000  43.4900000  32.6100000  42.3800000
  41.5900000  32.5700000  43.4000000  41.2000000  33.3200000  44.1000000
  40.8700000  32.4900000  42.0600000  39.8000000  32.5000000  42.2800000
  41.2000000  31.6700000  41.4200000  40.9800000  33.7400000  41.1000000
  42.0100000  33.9400000  40.8100000  40.0800000  33.5100000  39.8700000
  40.0700000  34.4400000  39.3100000  40.3700000  32.6900000  39.2000000
  39.1100000  33.3500000  40.3200000  40.4900000  34.9500000  41.8800000
  40.4600000  35.8400000  41.2400000  39.5100000  34.7600000  42.3100000
  41.1600000  35.1400000  42.7100000  41.1800000  31.2600000  44.1700000
  40.0500000  31.1500000  44.5600000  42.1200000  30.3000000  44.1800000
  43.0600000  30.5300000  43.8800000  42.0200000  29.2700000  45.1800000
  41.2500000  28.6200000  44.7500000  43.3900000  28.6300000  45.2700000
  44.0800000  29.3200000  45.7500000  43.7600000  28.2500000  44.3200000
  43.2200000  27.3500000  46.2000000  42.1600000  26.7200000  46.1100000
  44.1900000  26.8500000  46.7600000  41.6200000  29.7300000  46.5800000
  42.5200000  30.2600000  47.2900000  40.3800000  29.5600000  47.0100000
  39.7400000  29.0900000  46.3900000  39.7100000  29.9800000  48.2700000
  38.7000000  29.5700000  48.2500000  40.2600000  29.2300000  49.4700000
  41.2700000  29.5600000  49.6900000  40.4000000  28.1600000  49.3100000
  39.4300000  29.2300000  50.6800000  38.4300000  28.5800000  50.7400000
  39.8400000  29.8900000  51.7300000  40.7500000  30.3300000  51.7800000
  39.2000000  30.1200000  52.4800000  39.4000000  31.4500000  48.5100000
  39.2800000  31.9100000  49.6600000  39.4400000  32.3000000  47.4800000
  39.6200000  31.8500000  46.5900000  39.2400000  33.7100000  47.5400000
  39.8000000  34.1200000  48.3900000  39.7700000  34.3600000  46.2500000
  39.1300000  33.9100000  45.4900000  40.8100000  34.0900000  46.0600000
  39.5500000  35.8700000  46.1900000  38.3400000  36.3800000  45.8500000
  37.4100000  35.8300000  45.8400000  38.2100000  37.7800000  45.7200000
  37.4000000  38.4500000  45.4500000  39.4000000  38.5700000  45.9000000
  39.1800000  39.9100000  45.7900000  39.9800000  40.4500000  45.8100000
  40.6400000  38.0500000  46.1300000  41.5400000  38.6100000  46.3500000
  40.7000000  36.6300000  46.4000000  41.6900000  36.3100000  46.7000000
  37.7700000  33.9900000  47.8100000  36.9100000  33.5500000  47.1000000
  37.5400000  34.8200000  48.8700000  38.3600000  35.2500000  49.2800000
  36.2700000  35.0100000  49.5700000  36.4600000  35.3500000  50.5800000
  35.3600000  36.0300000  48.8200000  34.4100000  36.0400000  49.3500000
  35.2700000  35.6200000  47.8100000  35.8000000  37.5700000  48.5900000
  35.0600000  38.0300000  47.9300000  36.7800000  37.3700000  48.1700000
  35.9300000  38.3900000  49.8300000  35.4500000  37.9000000  50.6700000
  35.5100000  39.3700000  49.6200000  37.3900000  38.5600000  50.1400000
  37.7700000  38.0600000  50.9300000  38.1100000  39.6600000  49.8500000
  37.7000000  40.6500000  49.0700000  36.8700000  40.4800000  48.5200000
  38.2000000  41.5200000  49.1200000  39.3200000  39.8600000  50.3200000
  39.7500000  39.4000000  51.1100000  39.8500000  40.5800000  49.8300000
  35.5500000  33.6400000  49.9100000  34.3100000  33.6400000  50.1100000
  36.2300000  32.5500000  49.8600000  37.2200000  32.7100000  50.0300000
  35.7400000  31.1700000  50.2800000  34.8100000  31.2700000  50.8400000
  36.6000000  30.7700000  50.8200000  35.4600000  30.1200000  49.2200000
  34.9700000  29.0900000  49.5800000  35.7700000  30.4600000  47.9500000
  36.1000000  31.4100000  47.8600000  35.3400000  29.6200000  46.8300000
  34.6000000  28.9100000  47.2000000  34.4600000  30.5100000  45.8700000
  34.3200000  30.0100000  44.9100000  35.1700000  31.3000000  45.6400000
  33.2400000  31.1600000  46.5000000  31.9400000  30.7000000  45.9500000
  31.8500000  29.8500000  45.2800000  30.8400000  31.5100000  46.2900000
  29.9000000  31.2100000  45.8700000  30.9500000  32.7300000  46.9000000
  29.8500000  33.5500000  46.8900000  30.0100000  34.3100000  47.4600000
  32.1900000  33.1700000  47.4400000  32.2800000  34.1600000  47.8700000
  33.3100000  32.2700000  47.2000000  34.3100000  32.6600000  47.3600000
  36.5700000  28.9600000  46.2400000  37.6300000  29.5200000  46.0500000
  36.5200000  27.6300000  46.2300000  35.6000000  27.2500000  46.4300000
  37.5600000  26.6600000  46.0100000  38.3200000  26.7900000  46.7800000
  37.0400000  25.2400000  46.2900000  36.5600000  25.1900000  47.2700000
  37.8800000  24.5400000  46.2700000  36.2100000  24.7600000  45.3100000
  35.6800000  24.0400000  45.6500000  38.0800000  26.8600000  44.5700000
  37.2800000  27.2900000  43.7300000  39.2800000  26.5400000  44.1900000
  39.8100000  26.0900000  44.9300000  39.8900000  26.6700000  42.8700000
  40.1700000  27.7200000  42.7700000  41.1800000  25.8900000  42.8900000
  41.0200000  24.8500000  43.1700000  41.8100000  26.2200000  43.7100000
  41.9100000  25.9600000  41.5300000  41.2700000  25.6200000  40.7200000
  42.3800000  27.3800000  41.1100000  43.0500000  27.3100000  40.2600000
  41.5100000  27.9800000  40.8500000  42.9600000  27.7400000  41.9600000
  43.1700000  25.1000000  41.5300000  43.5600000  25.0800000  40.5100000
  43.9200000  25.6200000  42.1200000  42.9200000  24.1500000  41.9900000
  38.9100000  26.2500000  41.7600000  38.7900000  26.9400000  40.7500000
  38.3100000  25.1000000  41.9000000  38.5000000  24.6000000  42.7600000
  37.4100000  24.5300000  40.9500000  37.2400000  23.4900000  41.2300000
  37.8800000  24.4800000  39.9700000  36.0100000  25.1700000  40.6700000
  35.4500000  25.0900000  39.6900000  35.5900000  25.9300000  41.8100000
  36.1800000  26.1800000  42.5900000  34.4200000  26.8200000  41.6700000
  33.5800000  26.1400000  41.5400000  34.2200000  27.6600000  42.9600000
  33.6900000  28.5600000  42.6700000  35.1600000  27.9400000  43.4400000
  33.2000000  26.9800000  44.0100000  31.9900000  27.1000000  43.8100000
  33.7200000  26.1900000  44.9500000  34.7200000  26.0600000  44.8700000
  33.2100000  25.6600000  45.6400000  34.5900000  27.8000000  40.4600000
  33.6400000  27.8900000  39.5900000  35.6900000  28.4500000  40.2000000
  36.5200000  28.1600000  40.6900000  35.8900000  29.4100000  39.1100000
  35.0400000  30.0800000  39.0900000  37.1700000  30.1000000  39.4600000
  37.3300000  30.9100000  38.7500000  38.0300000  29.4300000  39.4100000
  37.1600000  30.7300000  40.8200000  37.8000000  30.1800000  41.9200000
  38.4600000  29.3300000  41.8300000  37.5900000  30.9400000  43.0300000
  37.7600000  30.7400000  44.0100000  36.8500000  32.0600000  42.7300000
  36.3400000  32.9600000  43.6100000  36.5100000  32.9700000  44.6700000
  35.5400000  34.0700000  43.1400000  35.2000000  34.8000000  43.8600000
  35.3300000  34.1700000  41.7500000  34.7000000  34.9900000  41.4500000
  35.8100000  33.1300000  40.9000000  35.4500000  33.2000000  39.8800000
  36.6200000  32.0400000  41.3200000  36.0200000  28.7700000  37.6400000
  35.5900000  29.2800000  36.6900000  36.7000000  27.6100000  37.6200000
  37.1300000  27.1400000  38.4100000  36.7100000  26.7200000  36.5000000
  37.1200000  27.2400000  35.6300000  37.6800000  25.5600000  36.8200000
  37.2100000  24.8500000  37.5000000  38.1400000  24.7800000  35.5800000
  38.8800000  24.0000000  35.7800000  37.3100000  24.2400000  35.1400000
  38.5200000  25.3600000  34.7400000  39.0200000  26.0300000  37.4200000
  39.6100000  25.1700000  37.7400000  39.7000000  26.6200000  36.8200000
  38.8300000  26.5400000  38.3700000  35.2600000  26.3000000  36.0500000
  34.9900000  26.2700000  34.9000000  34.3700000  25.9600000  37.0300000
  34.7100000  25.8800000  37.9800000  32.9900000  25.5500000  36.6600000
  32.9300000  24.7700000  35.9000000  32.3500000  25.0100000  37.9300000
  32.0700000  25.7900000  38.6400000  33.0800000  24.2900000  38.3100000
  30.8400000  24.0300000  37.5900000  32.1500000  26.7500000  35.9800000
  31.4000000  26.6100000  35.0000000  32.3000000  28.0000000  36.4400000
  32.9200000  28.1100000  37.2400000  31.8300000  29.1400000  35.7800000
  30.7400000  29.1100000  35.6800000  32.1500000  30.3600000  36.6000000
  31.6300000  31.2500000  36.2400000  31.8400000  30.2400000  37.6400000
  33.2200000  30.5300000  36.7100000  32.4000000  29.3400000  34.3900000
  31.6400000  29.2400000  33.4500000  33.7800000  29.3400000  34.2300000
  34.3900000  29.3900000  35.0400000  34.4100000  29.4500000  32.9500000
  33.9800000  30.3200000  32.4500000  35.8900000  29.6600000  33.2600000
  36.5000000  29.6500000  32.3500000  36.0300000  30.6400000  33.7000000
  36.1500000  28.7900000  33.8600000  34.1700000  28.3000000  31.9900000
  34.5000000  28.4200000  30.8300000  33.6000000  27.1200000  32.4000000
  33.3200000  27.1100000  33.3700000  33.1700000  26.0700000  31.4000000
  33.9700000  26.1500000  30.6500000  33.1200000  24.6300000  32.0500000
  32.4500000  24.7300000  32.9100000  34.1000000  24.4000000  32.4600000
  32.7200000  23.4700000  31.1400000  31.6500000  23.6000000  30.9500000
  32.9400000  22.5900000  31.7400000  33.4800000  23.4000000  29.7400000
  34.4900000  23.8100000  29.7900000  32.9200000  23.9700000  28.9900000
  33.5700000  21.9100000  29.4100000  32.5600000  21.5300000  29.5300000
  34.3500000  21.4900000  30.0400000  34.0700000  21.6800000  28.0100000
  33.3300000  21.9000000  27.3600000  34.8300000  22.2600000  27.6900000
  34.2400000  20.6900000  27.9100000  31.7900000  26.4000000  30.9200000
  31.6200000  26.3800000  29.6700000  30.8400000  26.7500000  31.8000000
  31.0900000  26.8200000  32.7800000  29.4400000  26.8400000  31.4000000
  29.0400000  26.1500000  30.6600000  28.4700000  26.3200000  32.5300000
  27.4500000  26.5500000  32.2100000  28.7500000  26.8200000  33.4500000
  28.6100000  24.7900000  32.5700000  28.1000000  24.0500000  31.5500000
  27.5600000  24.6300000  30.8200000  28.2700000  22.6500000  31.6100000
  27.9900000  21.9500000  30.8400000  28.9700000  22.0000000  32.6600000
  29.2200000  20.9500000  32.7600000  29.3900000  22.7800000  33.8300000
  29.8800000  22.3800000  34.7100000  29.1200000  24.2300000  33.7900000
  29.4200000  24.7800000  34.6700000  29.1300000  28.2900000  30.8800000
  28.0800000  28.4500000  30.2400000  30.0800000  29.2100000  31.0700000
  30.9700000  29.1400000  31.5500000  29.9200000  30.5400000  30.2600000
  28.8700000  30.7700000  30.1000000  30.7100000  31.7000000  30.9400000
  30.7800000  32.5800000  30.2900000  31.6900000  31.3600000  31.2600000
  29.9700000  32.3500000  32.1300000  30.5900000  33.1400000  32.5600000
  29.9400000  31.5700000  32.8900000  28.5300000  32.9000000  31.8300000
  28.1000000  33.0500000  30.7400000  27.8900000  33.3000000  32.9000000
  30.3600000  30.3700000  28.8200000  29.6800000  30.8400000  27.9600000
  31.5600000  29.7300000  28.6100000  32.0500000  29.5700000  29.4800000
  32.3000000  30.0300000  27.4300000  31.7300000  30.2000000  26.5200000
  33.2800000  31.1900000  27.6900000  32.7200000  32.0500000  28.0600000
  33.9200000  31.3700000  26.8300000  33.9500000  30.7400000  28.8600000
  34.3000000  31.4900000  29.3500000  33.1900000  28.7800000  27.0000000
  33.8100000  28.8400000  25.9600000  33.2100000  27.7100000  27.7700000
  32.5500000  27.4700000  28.4900000  34.0900000  26.5700000  27.3500000
  34.1900000  26.0200000  28.2900000  33.4000000  25.6800000  26.3200000
  33.3000000  26.2000000  25.3700000  32.5300000  25.1800000  26.7400000
  34.2100000  24.3200000  26.0000000  35.0000000  23.8100000  26.7900000
  34.0400000  23.8100000  24.8200000  33.2600000  24.0700000  24.2300000
  34.6100000  23.0400000  24.4900000  35.6300000  26.9200000  27.2100000
  36.3300000  26.4400000  26.3000000  36.1300000  27.7900000  28.0600000
  35.6100000  28.1300000  28.8500000  37.5500000  28.2000000  28.1500000
  37.6900000  28.8500000  29.0100000  38.4600000  26.9700000  28.4300000
  39.4300000  27.4400000  28.6400000  38.6900000  26.4400000  27.5000000
  37.9100000  26.0700000  29.5400000  37.9500000  24.6000000  29.4300000
  38.3800000  24.2000000  28.5200000  37.5000000  23.7500000  30.3800000
  37.4700000  22.6800000  30.4600000  36.9000000  24.2900000  31.5400000
  36.4200000  23.7000000  32.3100000  36.7500000  25.6600000  31.7400000
  36.2600000  26.0400000  32.6300000  37.2900000  26.5400000  30.7000000
  37.1000000  27.5800000  30.9300000  37.9700000  29.0400000  26.8900000
  39.1500000  29.1700000  26.7100000  37.0100000  29.6600000  26.2000000
  36.0700000  29.3500000  26.4100000  37.1800000  30.5200000  24.9700000
  38.0900000  30.2600000  24.4200000  36.0800000  30.2800000  23.9100000
  35.1600000  30.6100000  24.4000000  36.0700000  29.2000000  23.8100000
  36.2200000  31.0000000  22.6500000  37.2000000  31.7300000  22.3500000
  35.4600000  30.7400000  21.6400000  34.6900000  30.1100000  21.8200000
  35.4900000  31.2600000  20.7800000  37.3100000  32.0100000  25.3100000
  36.4000000  32.7100000  25.6600000  38.5400000  32.5100000  25.3500000
  39.3700000  31.9500000  25.2500000  38.7600000  33.9400000  25.5800000
  38.4500000  34.3100000  26.5500000  40.2100000  34.3400000  25.6800000
  40.2800000  35.4200000  25.8400000  40.9100000  33.6700000  26.7700000
  41.8000000  34.2500000  27.0100000  40.3000000  33.7400000  27.6800000
  41.1900000  32.6300000  26.6100000  41.0400000  34.1300000  24.4900000
  41.5300000  34.9600000  24.4300000  38.0400000  34.9800000  24.6200000
  37.8900000  36.0500000  24.9100000  37.7200000  34.5000000  23.3400000
  37.7300000  33.5300000  23.0500000  37.3900000  35.4600000  22.2700000
  37.7900000  36.4600000  22.4300000  37.8900000  35.0000000  20.9200000
  37.3900000  35.5900000  20.1500000  37.4300000  34.0200000  20.7300000
  39.4200000  35.1200000  20.7700000  39.7600000  34.3800000  20.0500000
  39.9800000  35.0000000  21.6900000  39.6800000  36.4400000  19.9800000
  39.2800000  36.7400000  18.8300000  40.4900000  37.3100000  20.5700000
  40.8500000  37.0700000  21.4800000  40.5700000  38.1600000  20.0200000
  35.7900000  35.6900000  22.1400000  35.3100000  36.4500000  21.3800000
  35.0500000  34.8600000  22.8900000  35.6700000  34.1800000  23.3100000
  33.6000000  34.6400000  22.8900000  33.2300000  34.2500000  21.9400000
  33.3600000  33.6000000  24.0200000  32.3500000  33.2100000  23.8900000
  34.0100000  32.7400000  23.8400000  33.4400000  34.0400000  25.0100000
  32.9200000  35.9500000  23.3200000  33.2300000  36.6500000  24.2900000
  31.8600000  36.2600000  22.4900000  31.7500000  35.5700000  21.7600000
  30.9400000  37.4000000  22.8700000  31.1000000  37.5800000  23.9300000
  31.3000000  38.7100000  22.0700000  30.4600000  39.4000000  22.0600000
  32.5800000  39.3500000  22.6600000  32.7300000  40.3900000  22.3700000
  32.4900000  39.2500000  23.7400000  33.4500000  38.7400000  22.4500000
  31.5800000  38.5600000  20.6900000  32.4700000  38.2200000  20.5800000
  29.4500000  37.0100000  22.7000000  29.0300000  36.5500000  21.7100000
  28.6600000  37.4100000  23.7200000  28.9600000  37.9200000  24.5400000
  27.2300000  37.2500000  23.7400000  27.0200000  36.7800000  22.7700000
  26.8200000  36.4100000  24.8900000  26.9700000  36.9400000  25.8400000
  27.4300000  35.5100000  24.8900000  25.3300000  36.0300000  24.8700000
  24.6800000  35.6700000  23.7800000  24.6200000  36.1700000  25.9500000
  24.9700000  36.7700000  26.6800000  23.8000000  35.5900000  26.0400000
  26.6000000  38.6200000  23.9100000  27.0400000  39.4400000  24.7100000
  25.5400000  38.8600000  23.2000000  25.1100000  38.1900000  22.5800000
  24.8600000  40.1400000  23.0800000  25.5000000  40.9800000  23.3500000
  24.3200000  40.3200000  21.6800000  23.9600000  39.3400000  21.3800000
  25.2000000  40.4500000  21.0700000  23.2900000  41.4300000  21.4500000
  22.4400000  41.3200000  22.1100000  22.9000000  41.5400000  20.4400000
  23.8100000  42.8800000  21.6900000  24.3800000  42.9600000  22.6200000
  22.9600000  43.5600000  21.7100000  24.7600000  43.3700000  20.6500000
  25.6500000  42.9000000  20.6500000  24.4300000  44.2100000  19.6700000
  25.2800000  44.4500000  18.7000000  26.0500000  43.8000000  18.6000000
  24.9700000  45.0600000  17.9600000  23.3800000  44.9100000  19.6200000
  22.6400000  44.8000000  20.3000000  23.1800000  45.6700000  18.9700000
  23.6700000  40.1100000  24.1000000  22.8600000  39.2000000  24.0700000
  23.3800000  41.2400000  24.7500000  24.0000000  42.0300000  24.8000000
  22.2300000  41.3900000  25.6100000  21.9200000  40.4000000  25.9600000
  22.6700000  42.2400000  26.8800000  21.8100000  42.5200000  27.4800000
  23.2000000  43.1700000  26.6800000  23.7000000  41.5700000  27.7300000
  24.8400000  41.4300000  27.3400000  23.2300000  41.0100000  28.7600000
  22.2500000  40.8100000  28.9100000  23.8600000  40.3600000  29.2100000
  21.0600000  42.2400000  24.9800000  21.3700000  43.1100000  24.1900000
  19.8700000  42.0200000  25.3900000  19.7300000  41.1900000  25.9500000
  18.6800000  42.7400000  24.8400000  18.7600000  42.7500000  23.7500000
  17.4000000  41.9800000  25.1600000  16.6300000  42.7200000  24.9500000
  17.2300000  40.6500000  24.4100000  16.4600000  40.0400000  24.8700000
  16.8400000  40.8700000  23.4100000  18.1500000  40.0700000  24.4100000
  17.3400000  41.7000000  26.5700000  16.4000000  41.5300000  26.6600000
  18.6500000  44.2600000  25.1500000  17.7900000  44.9700000  24.5700000
  19.6300000  44.8400000  25.8700000  20.3300000  44.2200000  26.2700000
  19.6800000  46.2000000  26.2200000  18.7800000  46.7900000  26.0600000
  19.7800000  46.3000000  27.7500000  18.8800000  45.8100000  28.1400000
  19.5500000  47.3200000  28.0600000  21.0400000  45.8500000  28.4900000
  21.9000000  45.2300000  27.8800000  21.0800000  46.1500000  29.7000000
  20.8000000  47.0200000  25.6300000  21.1100000  48.1300000  25.9900000
  21.4400000  46.3500000  24.6700000  21.2500000  45.3900000  24.4400000
  22.6700000  46.8900000  24.0600000  22.5900000  47.9500000  23.8000000
  22.7000000  46.3100000  23.1300000  24.0200000  46.6200000  24.7100000
  25.0900000  46.8100000  24.0800000  24.0500000  46.0300000  25.9400000
  23.3400000  45.9400000  26.6500000  25.2900000  45.4500000  26.4700000
  26.1500000  46.0700000  26.2300000  25.2300000  45.5300000  28.0400000
  24.8500000  46.5000000  28.3700000  26.2100000  45.2100000  28.4100000
  24.3100000  44.5600000  28.5300000  23.4600000  44.8300000  28.1800000
  25.7200000  44.1000000  25.8300000  25.0500000  43.6100000  24.8600000
  26.9700000  43.6500000  26.0300000  27.5200000  44.1900000  26.6800000
  27.6500000  42.4500000  25.5300000  26.8100000  41.7900000  25.3300000
  28.5300000  43.0200000  24.4000000  29.1900000  43.7700000  24.8200000
  29.4400000  42.0000000  23.8400000  30.1800000  42.3900000  23.1500000
  30.0900000  41.5500000  24.5900000  28.9100000  41.1900000  23.3400000
  27.8400000  43.5200000  23.2600000  27.0100000  43.8600000  23.6000000
  28.5100000  41.9700000  26.7500000  29.0600000  42.7200000  27.4900000
  28.7100000  40.6500000  26.8000000  28.3400000  40.0800000  26.0500000
  29.6600000  39.9900000  27.7300000  29.8800000  40.7300000  28.5000000
  28.9800000  38.8200000  28.4600000  29.6800000  38.4700000  29.2200000
  28.7900000  37.9700000  27.8000000  27.6200000  39.2900000  29.0900000
  26.6700000  38.4900000  28.9600000  27.6000000  40.2700000  29.7600000
  31.0600000  39.7100000  26.9800000  31.0900000  39.1100000  25.9400000
  32.1900000  40.2000000  27.5800000  32.1700000  40.6700000  28.4700000
  33.4900000  40.1500000  26.8900000  33.4200000  39.9500000  25.8200000
  34.0700000  41.5900000  26.9300000  35.1400000  41.3800000  26.8800000
  33.9200000  42.0200000  27.9300000  33.4300000  42.4700000  25.8300000
  33.9000000  42.7000000  24.5100000  34.8500000  42.2700000  24.2500000
  33.1700000  43.6100000  23.6600000  33.5800000  43.7300000  22.6700000
  32.0900000  44.3100000  24.1100000  31.4100000  45.2400000  23.3300000
  30.8100000  45.7600000  23.8800000  31.5800000  44.0800000  25.4400000
  30.7100000  44.5900000  25.8200000  32.2400000  43.1200000  26.2300000
  31.8500000  42.9100000  27.2200000  34.3200000  39.1000000  27.6600000
  34.5300000  39.1400000  28.8200000  34.6900000  38.1000000  26.7800000
  34.2200000  38.0400000  25.9000000  35.6700000  37.0400000  27.0500000
  36.6300000  37.4800000  27.3300000  36.0300000  36.6100000  26.1100000
  35.4500000  35.9400000  28.1200000  34.3400000  35.6300000  28.4200000
  36.5000000  35.2900000  28.5800000  37.4800000  35.4700000  28.3900000
  36.4000000  33.8900000  29.1000000  35.9800000  33.4000000  28.2300000
  37.7900000  33.3300000  29.3600000  38.3700000  33.5100000  28.4500000
  38.5200000  34.1400000  30.4600000  39.5900000  33.9700000  30.3400000
  38.4000000  35.2200000  30.3900000  38.2300000  33.8400000  31.4600000
  37.8800000  31.7600000  29.6500000  37.4300000  31.3100000  28.7600000
  37.1500000  31.4700000  30.4100000  39.2600000  31.2000000  29.9100000
  39.2900000  30.1200000  29.7700000  39.9600000  31.7100000  29.2500000
  39.5500000  31.3900000  30.9500000  35.5100000  33.7500000  30.2800000
  34.6800000  32.7800000  30.3200000  35.4600000  34.7400000  31.1500000
  36.1300000  35.4900000  31.0500000  34.5200000  34.8100000  32.2900000
  34.3700000  33.7700000  32.5800000  35.2900000  35.4000000  33.5700000
  34.5700000  35.1900000  34.3600000  35.3500000  36.4900000  33.4800000
  36.6800000  34.8500000  33.9000000  37.3800000  35.1200000  33.1000000
  36.6600000  33.2900000  33.8800000  37.6600000  32.8900000  34.0400000
  35.9800000  32.9000000  34.6400000  36.3800000  32.9800000  32.8700000
  37.1400000  35.4300000  35.2300000  38.1600000  35.1400000  35.4600000
  37.2000000  36.5000000  35.0800000  36.4100000  35.1700000  36.0000000
  33.1300000  35.3900000  32.0300000  32.1700000  35.2200000  32.8100000
  32.9200000  36.0200000  30.8400000  33.7500000  36.0300000  30.2600000
  31.6300000  36.6400000  30.3500000  31.8800000  37.1500000  29.4200000
  30.6400000  35.5500000  30.0100000  29.6400000  36.0000000  29.9700000
  30.5800000  34.7900000  30.7800000  30.8700000  34.8000000  28.7500000
  30.1100000  34.0200000  28.7100000  31.8900000  34.4400000  28.6200000
  30.7300000  35.6300000  27.4100000  29.7200000  35.5100000  26.7500000
  31.7400000  36.3600000  27.0200000  32.5900000  36.5100000  27.5500000
  31.6100000  36.9400000  26.2100000  31.1700000  37.6300000  31.3800000
  30.0400000  37.6200000  32.0100000  31.9900000  38.7300000  31.5600000
  32.8600000  38.5100000  31.1000000  31.7600000  39.9600000  32.2500000
  31.0400000  39.7500000  33.0500000  33.0900000  40.3900000  32.9800000
  33.6300000  40.7900000  32.1300000  32.7100000  41.4000000  34.0300000
  33.6100000  41.9400000  34.3300000  31.9500000  42.1200000  33.7300000
  32.2600000  40.8800000  34.8700000  33.8200000  39.1400000  33.5900000
  34.1500000  38.4700000  32.8000000  33.1700000  38.6100000  34.2800000
  35.0200000  39.5600000  34.3700000  35.4500000  38.6400000  34.7800000
  35.7200000  40.1000000  33.7500000  34.7300000  40.1400000  35.2400000
  31.1100000  40.9900000  31.4400000  31.6500000  41.3500000  30.3500000
  29.9800000  41.5100000  31.8700000  29.6300000  41.0600000  32.7000000
  29.1100000  42.4300000  31.0900000  29.0500000  42.0800000  30.0600000
  27.8200000  42.4500000  31.8700000  27.9300000  42.7800000  32.9000000
  27.4000000  41.4400000  31.8900000  26.7400000  43.2500000  31.2500000
  26.5200000  44.3800000  31.6700000  26.2600000  42.8500000  30.1500000
  26.6100000  41.9800000  29.7700000  25.6000000  43.5100000  29.7700000
  29.6400000  43.8500000  30.9000000  30.3300000  44.4100000  31.7500000
  29.1800000  44.5500000  29.8200000  28.6400000  44.0300000  29.1400000
  29.4900000  46.0100000  29.5600000  30.4500000  46.2600000  30.0200000
  29.7700000  46.0700000  28.0900000  30.4900000  45.3200000  27.7500000
  30.1600000  47.0700000  27.8800000  28.6600000  45.8200000  27.3400000
  28.7300000  46.2300000  26.4800000  28.5700000  47.1300000  30.1000000
  28.8600000  48.2900000  29.8700000  27.4200000  46.8300000  30.7700000
  27.1300000  45.9000000  31.0400000  26.6500000  47.8800000  31.3500000
  26.6600000  48.7400000  30.6900000  25.1200000  47.4800000  31.3700000
  24.9500000  46.7400000  32.1500000  24.8400000  46.9500000  30.4600000
  24.1400000  48.6000000  31.6500000  24.3900000  49.5800000  31.2400000
  24.1000000  48.8500000  32.7100000  22.7200000  48.1900000  31.2000000
  22.5700000  47.2300000  31.6900000  22.5700000  47.9500000  30.1500000
  21.7800000  49.1700000  31.7200000  22.0500000  49.9400000  32.3100000
  20.4400000  49.1000000  31.6300000  19.7700000  48.3100000  30.9200000
  20.2500000  47.4900000  30.5800000  18.7600000  48.2900000  31.0200000
  19.8600000  50.0900000  32.2300000  20.4200000  50.8100000  32.6600000
  18.8800000  50.2300000  32.0400000  27.2900000  48.2700000  32.6700000
  27.2000000  49.5500000  33.0500000  27.8700000  47.4300000  33.5100000
  27.7200000  46.4700000  33.2400000  28.3600000  47.8700000  34.8800000
  28.2700000  48.9400000  35.0600000  27.6100000  46.9300000  35.8500000
  27.7200000  47.3300000  36.8600000  27.9900000  45.9100000  35.9000000
  26.5310000  46.8510000  35.7140000  29.8700000  47.8200000  34.9300000
  30.5600000  48.6600000  35.5300000  30.5300000  46.7800000  34.4000000
  29.9600000  46.2600000  33.7500000  31.8800000  46.3600000  34.8200000
  32.1700000  46.6700000  35.8200000  31.8000000  44.8600000  35.0000000
  32.7000000  44.5700000  35.5400000  31.8900000  44.4000000  34.0200000
  30.6000000  44.2900000  35.7200000  29.5500000  43.6800000  35.1700000
  29.4600000  43.5400000  34.1000000  28.6700000  43.3200000  36.1300000
  27.7900000  42.8700000  35.9300000  28.9500000  43.7700000  37.3900000
  28.4200000  43.5000000  38.6100000  27.5000000  42.9600000  38.7200000
  29.0800000  44.1400000  39.7100000  28.6500000  43.9300000  40.6700000
  30.2700000  44.8700000  39.5200000  30.6700000  45.2500000  40.4500000
  30.9200000  44.9100000  38.2700000  31.8700000  45.3900000  38.0900000
  30.3000000  44.4000000  37.1800000  32.8900000  46.7200000  33.7600000
  33.7500000  47.6200000  34.2600000  32.8000000  46.4500000  32.4600000
  32.0200000  45.8900000  32.1600000  33.6400000  47.0500000  31.4300000
  34.4700000  47.6000000  31.8800000  34.3700000  45.9000000  30.6400000
  34.9200000  45.1600000  31.2100000  35.1600000  46.2900000  30.0000000
  33.3800000  44.9700000  29.5600000  32.9700000  48.1200000  30.5400000
  31.7100000  48.0800000  30.4400000  33.7600000  49.0400000  29.9800000
  34.7600000  48.9400000  30.0900000  33.2900000  49.9000000  28.8700000
  32.2100000  49.8300000  28.9500000  33.6700000  51.4000000  29.2400000
  34.6200000  51.4100000  29.7800000  32.9100000  51.8500000  29.8700000
  33.6000000  52.2400000  27.9800000  32.5300000  52.7900000  27.7000000
  34.6300000  52.3500000  27.1200000  35.5700000  52.1100000  27.4000000
  34.4400000  53.0100000  26.3700000  33.8200000  49.4200000  27.4500000
  34.9700000  49.0400000  27.4000000  32.8600000  49.3800000  26.4500000
  31.9600000  49.5500000  26.8500000  32.9900000  49.1400000  25.0300000
  34.0700000  48.9900000  25.0500000  32.2800000  47.9100000  24.6500000
  32.7100000  47.0800000  25.2100000  32.3100000  47.8000000  23.5600000
  30.7500000  47.8800000  24.8700000  30.0600000  46.9300000  24.8400000
  30.2300000  49.1500000  25.0400000  32.9700000  50.3700000  24.1700000
  33.1800000  50.4300000  22.9600000  32.6400000  51.4400000  24.7600000
  32.7300000  51.3400000  25.7600000  32.4300000  52.7400000  24.0500000
  33.1200000  52.8500000  23.2200000  32.6400000  53.4700000  24.8300000
  31.0100000  52.8300000  23.5100000  30.4800000  53.9600000  23.5200000
  30.2500000  51.7400000  23.2800000  30.8100000  50.9000000  23.3300000
  28.9900000  51.7000000  22.5500000  28.7200000  52.7500000  22.3800000
  29.1100000  51.0300000  21.1700000  29.9900000  51.4900000  20.7000000
  28.2800000  51.2900000  20.5100000  29.3100000  49.5300000  21.2200000
  28.4200000  49.0600000  21.6400000  30.2200000  49.2100000  21.7200000
  29.4100000  49.1000000  19.6900000  30.3900000  49.3700000  19.2900000
  28.6600000  49.6200000  19.1100000  29.2300000  47.6400000  19.5300000
  29.9600000  46.9900000  19.7700000  28.0400000  47.2000000  19.2200000
  27.8300000  45.8800000  19.0200000  28.6100000  45.2500000  19.1000000
  26.8800000  45.5700000  18.8900000  26.8200000  47.7700000  19.1800000
  26.7500000  48.7200000  19.5000000  26.0500000  47.2400000  18.8100000
  27.8100000  50.9900000  23.2700000  26.7500000  51.0200000  22.7600000
  28.0800000  50.5700000  24.5200000  28.9900000  50.3300000  24.8900000
  26.9900000  50.3900000  25.4500000  26.1600000  49.9400000  24.8900000
  27.4200000  49.4600000  26.6000000  28.3700000  49.8200000  26.9900000
  26.4000000  49.1800000  27.7400000  26.7000000  48.4000000  28.4300000
  26.4100000  50.0600000  28.3900000  25.4100000  49.0100000  27.3200000
  27.6400000  48.1700000  26.0100000  28.4800000  48.2800000  25.5800000
  26.6200000  51.7500000  26.0700000  27.5000000  52.4100000  26.6200000
  25.3000000  52.0900000  26.1200000  24.1700000  51.4600000  25.4400000
  23.6400000  50.9500000  26.2500000  24.4100000  50.8300000  24.5900000
  23.3300000  52.6600000  24.9100000  22.2700000  52.4100000  24.8100000
  23.7500000  52.9800000  23.9600000  23.5700000  53.6200000  26.0700000
  22.8400000  53.3300000  26.8300000  23.3600000  54.6600000  25.7900000
  24.9400000  53.4300000  26.6100000  25.6300000  54.1500000  26.1800000
  25.0300000  53.6000000  28.1300000  24.5600000  52.7400000  28.8700000
  25.6500000  54.7100000  28.5700000  26.1100000  55.3600000  27.9500000
  25.8200000  55.0800000  29.9900000  24.7800000  55.0600000  30.3200000
  26.5300000  55.9000000  30.0500000  26.4900000  54.0000000  30.9200000
  26.5400000  54.1500000  32.0600000  27.2900000  53.0500000  30.3200000
  27.2300000  52.9900000  29.3200000  28.1600000  52.1000000  31.0600000
  27.6000000  51.2600000  31.4600000  29.1700000  51.4100000  30.1800000
  29.9000000  52.0800000  29.7300000  28.6200000  51.0000000  29.3300000
  29.7700000  50.4400000  30.9900000  29.5800000  49.5900000  30.5900000
  29.0200000  52.6900000  32.2300000  29.7400000  53.6600000  32.0700000
  28.9800000  52.0300000  33.4300000  28.4800000  51.1500000  33.4500000
  29.5300000  52.4900000  34.6900000  29.3000000  53.5600000  34.6200000
  28.6400000  51.8900000  35.9400000  29.0000000  52.3600000  36.8500000
  28.6300000  50.8100000  36.0900000  27.2000000  52.3400000  35.6900000
  26.6300000  52.0200000  36.5600000  26.7900000  51.8300000  34.8200000
  26.9700000  53.8500000  35.5500000  27.0200000  54.1700000  34.5100000
  27.7300000  54.3900000  36.1100000  25.6400000  54.2600000  36.0400000
  25.5600000  54.2000000  37.0500000  24.5500000  54.4500000  35.2400000
  24.5300000  54.3800000  33.9600000  25.4200000  54.2800000  33.5100000
  23.7600000  54.7200000  33.3900000  23.4000000  54.7700000  35.8600000
  23.3000000  54.8000000  36.8600000  22.6300000  54.9000000  35.2200000
  31.0300000  52.3200000  34.9100000  31.5300000  52.9900000  35.8600000
  31.7500000  51.5500000  34.0900000  31.4000000  51.1000000  33.2600000
  33.1500000  51.5100000  34.3200000  33.4600000  50.7300000  33.6400000
  33.8100000  52.7900000  33.6200000  33.2100000  53.5500000  34.1400000
  33.2600000  52.9100000  32.6900000  35.2700000  52.9500000  33.6200000
  35.9600000  52.1400000  32.9800000  35.9000000  54.0000000  34.1700000
  35.4100000  54.5200000  34.8800000  36.9100000  54.0400000  34.2200000
  33.6400000  51.0400000  35.6900000  34.7500000  51.3800000  36.1200000
  32.9100000  50.1600000  36.4500000  32.0900000  49.8300000  35.9600000
  33.2700000  49.7800000  37.7900000  33.4700000  50.6400000  38.4300000
  32.0900000  48.9300000  38.3000000  32.4000000  48.4500000  39.2300000
  31.9000000  48.1000000  37.6300000  30.7200000  49.6000000  38.6200000
  30.2700000  50.0000000  37.7100000  29.7200000  48.5800000  39.1900000
  28.7200000  49.0200000  39.2200000  29.6400000  47.6500000  38.6300000
  29.9200000  48.3600000  40.2400000  30.8600000  50.6700000  39.6600000
  29.8600000  51.0900000  39.7600000  31.2100000  50.2900000  40.6300000
  31.3600000  51.6000000  39.3900000  34.6000000  49.0800000  37.9300000
  35.1700000  49.1300000  39.0200000  35.0200000  48.3100000  36.8900000
  34.4000000  48.4100000  36.0900000  36.3500000  47.7300000  36.8200000
  36.6500000  47.4300000  37.8300000  36.2200000  46.3900000  36.0100000
  36.8800000  46.3800000  35.1500000  35.2000000  46.2600000  35.6400000
  36.4400000  44.9300000  37.0400000  37.4900000  48.6400000  36.3600000
  38.6900000  48.3000000  36.5200000  37.1900000  49.7700000  35.7500000
  36.2200000  50.0000000  35.6200000  38.1200000  50.7600000  35.1400000
  37.4600000  51.5200000  34.7500000  38.9300000  51.5000000  36.2100000
  39.8000000  50.8500000  36.3800000  38.3300000  51.6900000  37.1000000
  39.4100000  52.8500000  35.6400000  38.7400000  53.6100000  35.0100000
  40.6300000  53.1600000  35.9300000  41.0900000  52.5500000  36.5900000
  40.8800000  54.1300000  35.7500000  39.0200000  50.2100000  33.9000000
  40.0300000  50.8400000  33.5700000  38.5300000  49.1800000  33.2700000
  37.6000000  48.8500000  33.4900000  39.2000000  48.6500000  32.0600000
  40.0800000  49.2600000  31.8300000  39.7800000  47.2500000  32.2600000
  40.2800000  47.0400000  31.3200000  40.8000000  47.2000000  33.3900000
  41.2900000  46.2300000  33.4600000  41.6400000  47.8200000  33.0700000
  40.3300000  47.5300000  34.3200000  38.6800000  46.2100000  32.4800000
  37.9200000  46.2900000  31.7100000  38.2400000  46.3000000  33.4800000
  39.1700000  44.7600000  32.3100000  38.2900000  44.1400000  32.4300000
  39.6900000  44.6000000  31.3700000  39.9100000  44.5100000  33.0800000
  38.3200000  48.7300000  30.7400000  37.1000000  48.6500000  30.8700000
  38.9100000  48.7800000  29.5300000  40.3600000  48.8900000  29.2400000
  40.8500000  48.1000000  29.8100000  40.7400000  49.8300000  29.6500000
  40.6000000  48.7100000  27.7300000  40.8800000  47.7000000  27.4400000
  41.3000000  49.4600000  27.3600000  39.1900000  49.0500000  27.2000000
  39.0400000  48.5400000  26.2500000  39.0800000  50.1400000  27.1800000
  38.2400000  48.6200000  28.2500000  37.3500000  49.2400000  28.2300000
  37.7900000  47.1300000  28.2800000  38.5800000  46.2500000  28.5000000
  36.5800000  46.8600000  27.7500000  36.0000000  47.6700000  27.6100000
  36.0400000  45.5600000  27.4100000  35.8700000  45.0200000  28.3400000
  34.6800000  45.7600000  26.7600000  34.4000000  44.8400000  26.2400000
  34.8400000  46.5000000  25.9900000  33.4000000  46.2700000  27.9400000
  36.9300000  44.7300000  26.4400000  37.0400000  43.4900000  26.6100000
  37.7100000  45.4000000  25.5700000  37.5300000  46.3800000  25.3700000
  38.7300000  44.8500000  24.6800000  38.3100000  43.9500000  24.2200000
  39.1100000  45.7900000  23.5900000  38.3100000  46.0200000  22.8900000
  39.8300000  45.2400000  22.9800000  39.7400000  46.9400000  24.1600000
  40.7000000  46.9600000  24.1500000  40.0500000  44.4100000  25.4400000
  40.9300000  43.8300000  24.7700000  40.2200000  44.5500000  26.7500000
  39.5700000  45.0700000  27.3100000  41.2700000  43.9700000  27.5700000
  42.1200000  43.7500000  26.9200000  41.6500000  44.8800000  28.6500000
  42.4100000  44.4700000  29.3100000  42.1700000  45.7100000  28.1700000
  40.8400000  45.1200000  29.3400000  40.9500000  42.5700000  28.1300000
  41.7600000  41.7600000  28.4300000  39.6400000  42.3500000  28.3400000
  38.9100000  43.0300000  28.2100000  39.1500000  41.0000000  28.7400000
  39.7400000  40.7400000  29.6200000  37.6900000  40.9600000  29.1000000
  37.3300000  39.9400000  29.2400000  37.3000000  41.3100000  28.1400000
  37.1500000  41.8700000  30.3100000  37.5700000  42.8600000  30.1600000
  35.6700000  42.0500000  30.3800000  35.3400000  42.7100000  31.1800000
  35.2700000  42.4900000  29.4600000  35.1500000  41.1100000  30.5300000
  37.7800000  41.2200000  31.5900000  37.4200000  41.7100000  32.5000000
  37.4600000  40.1800000  31.6300000  38.8600000  41.2600000  31.4700000
  39.5300000  39.9400000  27.7500000  39.9400000  38.8500000  28.0900000
  39.3300000  40.2300000  26.4200000  39.0500000  41.1800000  26.2100000
  39.5100000  39.3000000  25.2900000  38.9300000  38.4400000  25.6300000
  39.0000000  39.7800000  23.9700000  39.1200000  38.9800000  23.2400000
  39.5500000  40.6500000  23.6200000  37.4900000  40.1100000  23.8000000
  37.2900000  40.9900000  24.4200000  37.2500000  40.4500000  22.3300000
  36.1700000  40.6000000  22.3100000  37.7500000  41.3600000  22.0000000
  37.4900000  39.6100000  21.6700000  36.5900000  38.9800000  24.2600000
  35.5700000  39.1800000  23.9100000  36.9600000  38.0100000  23.9200000
  36.5300000  38.9500000  25.3500000  40.9500000  38.8600000  25.1300000
  41.2100000  38.0100000  24.2900000  41.9000000  39.3600000  25.9200000
  41.6200000  39.9100000  26.7200000  43.2400000  38.9000000  25.9800000
  43.7400000  39.2700000  25.0900000  43.8800000  39.7200000  27.1000000
  43.4000000  39.4300000  28.0300000  43.6800000  40.7600000  26.8200000
  45.2900000  39.5200000  27.2800000  45.3600000  39.6700000  28.2300000
  43.3700000  37.4300000  26.0600000  42.5300000  36.7700000  26.6500000
  44.4200000  36.8800000  25.4800000  44.9900000  37.4200000  24.8400000
  44.8300000  35.4800000  25.7000000  43.9800000  34.8200000  25.8200000
  45.6800000  35.0300000  24.5500000  46.1800000  34.1100000  24.8300000
  46.4600000  35.7700000  24.3800000  44.8300000  34.8200000  23.4400000
  44.8200000  35.6900000  23.0300000  45.6500000  35.3400000  27.0200000
  45.8000000  34.2400000  27.4800000  46.0800000  36.4600000  27.6500000
  45.9800000  37.3300000  27.1400000  46.4400000  36.5700000  29.0600000
  46.7800000  35.6200000  29.4800000  47.6000000  37.5600000  29.2600000
  47.5400000  38.4700000  28.6700000  48.5100000  37.0600000  28.9300000
  47.8000000  37.8600000  30.6800000  48.2700000  38.9600000  31.0900000
  47.5100000  36.9400000  31.5300000  45.2200000  36.9300000  29.8900000
  44.8200000  38.0900000  29.9000000  44.6200000  35.9400000  30.5000000
  45.0200000  35.0200000  30.3800000  43.5200000  36.0500000  31.4900000
  42.7600000  36.6500000  31.0000000  42.8800000  34.6800000  31.7500000
  42.0100000  34.8100000  32.3900000  42.2500000  34.2100000  30.4000000
  41.8000000  33.2400000  30.5900000  41.7000000  35.0400000  29.9600000
  43.0400000  34.0100000  29.6800000  43.9100000  33.6400000  32.2800000
  44.3700000  34.0100000  33.2000000  44.8200000  33.5600000  31.6800000
  43.3800000  32.1500000  32.4600000  44.1000000  31.4300000  32.8500000
  42.5400000  32.1200000  33.1600000  42.9100000  31.9100000  31.5100000
  43.8800000  36.6700000  32.8000000  43.0400000  36.9000000  33.6600000
  45.1700000  37.1000000  33.0700000  45.8600000  36.8500000  32.3700000
  45.5800000  37.8200000  34.2400000  45.3900000  37.3300000  35.1900000
  47.1200000  38.1800000  34.3000000  47.2900000  39.0300000  33.6300000
  47.6400000  38.6000000  35.6600000  48.7100000  38.7900000  35.6000000
  47.1600000  39.4800000  36.0900000  47.4500000  37.7900000  36.3700000
  47.9100000  37.0600000  34.0300000  47.8800000  36.9400000  33.0800000
  44.8400000  39.1300000  34.3500000  44.4300000  39.5900000  35.4400000
  44.6800000  39.8800000  33.2400000  45.3200000  39.5400000  32.5400000
  43.8100000  41.0400000  33.1700000  44.1300000  41.7500000  33.9300000
  44.0700000  41.7100000  31.8300000  43.3100000  42.4400000  31.5600000
  44.9800000  42.3100000  31.8000000  44.1500000  40.9100000  31.0800000
  42.2700000  40.8200000  33.5500000  41.6500000  41.5600000  34.2100000
  41.7700000  39.6000000  33.0900000  42.3000000  38.8700000  32.6500000
  40.4000000  39.0500000  33.5700000  39.5800000  39.7300000  33.3200000
  40.0300000  37.7400000  32.8200000  39.1500000  37.2500000  33.2600000
  40.8900000  37.0900000  32.7000000  39.5900000  38.1600000  31.5600000
  40.3500000  38.1800000  30.9700000  40.2900000  38.7400000  35.0700000
  39.2800000  39.0400000  35.6900000  41.3500000  38.1600000  35.6700000
  42.1200000  37.7400000  35.1600000  41.5100000  37.8300000  37.0900000
  40.6500000  37.2300000  37.3700000  42.7300000  37.0800000  37.3500000
  43.6200000  37.5600000  36.9300000  42.6700000  35.6300000  36.7300000
  43.2900000  34.9600000  37.3200000  41.6500000  35.2600000  36.8500000
  43.0000000  35.7200000  35.7000000  42.9800000  36.8500000  38.8900000
  43.7300000  36.0800000  39.0600000  43.4100000  37.7100000  39.4000000
  42.0300000  36.5700000  39.3500000  41.4100000  39.1300000  37.8900000
  40.5900000  39.2200000  38.7900000  42.2700000  40.1700000  37.4800000
  42.9600000  40.0200000  36.7600000  42.1900000  41.2800000  38.3300000
  42.3100000  40.9500000  39.3600000  43.4900000  42.2100000  38.0200000
  43.3100000  43.0900000  38.6400000  43.3800000  42.6300000  37.0100000
  44.6700000  41.4600000  38.4500000  44.9600000  41.4200000  39.6600000
  45.5700000  41.1100000  37.5700000  45.2000000  41.0600000  36.6300000
  46.3700000  40.5300000  37.7800000  40.9400000  42.1300000  38.3000000
  40.7500000  42.7600000  39.3000000  40.0300000  41.8900000  37.4000000
  40.1400000  41.1800000  36.6900000  38.7100000  42.5200000  37.4100000
  38.7000000  43.4900000  37.9000000  38.3000000  42.7300000  35.9500000
  38.3900000  41.7600000  35.4600000  39.0100000  43.4300000  35.5100000
  36.6000000  43.4200000  35.8100000  37.7000000  41.7100000  38.1100000
  36.9700000  42.2900000  39.0500000  37.6400000  40.4100000  38.0000000
  38.2200000  40.0500000  37.2500000  36.8100000  39.5400000  38.7400000
  35.7800000  39.8100000  38.5300000  36.8200000  38.1300000  38.1500000
  35.8900000  37.5600000  38.2700000  36.9400000  38.1900000  37.0700000
  37.7000000  37.5300000  38.3900000  36.9300000  39.5400000  40.2900000
  36.0400000  39.5200000  41.0000000  38.2000000  39.8500000  40.7300000
  38.9300000  39.7300000  40.0400000  38.4900000  40.1000000  42.1700000
  38.3100000  39.2500000  42.8200000  40.0100000  40.2400000  42.3600000
  40.3200000  40.7500000  43.2800000  40.4800000  40.8200000  41.5600000
  40.7300000  38.8500000  42.2200000  40.8100000  38.4400000  41.2100000
  40.2600000  38.1000000  42.8500000  42.1200000  39.0100000  42.7000000
  42.2600000  39.4200000  43.7000000  42.7400000  39.6700000  42.0800000
  42.7300000  37.5900000  42.7400000  42.5900000  37.1000000  41.7800000
  42.4300000  36.9800000  43.5900000  44.2000000  37.7400000  42.9600000
  44.7100000  36.8700000  43.0400000  44.7000000  38.2100000  42.2200000
  44.3000000  38.3200000  43.7900000  37.9000000  41.3200000  42.7700000
  37.6500000  41.4300000  43.9900000  37.4300000  42.2300000  41.8800000
  37.5500000  42.1700000  40.8700000  36.6100000  43.3900000  42.3100000
  36.8800000  43.6700000  43.3300000  36.8400000  44.5700000  41.3100000
  36.4500000  45.5300000  41.6700000  36.3600000  44.3600000  40.3500000
  38.3700000  44.8500000  41.1300000  38.9400000  44.0200000  40.7100000
  38.7600000  45.1100000  42.1200000  38.4800000  46.1300000  40.2900000
  37.9000000  46.9800000  40.6400000  38.0400000  45.9100000  39.3200000
  39.9700000  46.4400000  40.0200000  40.5200000  45.5900000  39.6200000
  40.2700000  46.8600000  40.9800000  40.0100000  47.5100000  39.0100000
  40.9700000  47.8000000  38.9000000  39.5700000  47.1500000  38.1800000
  39.6300000  48.3000000  39.5200000  35.1400000  43.0100000  42.4700000
  34.4400000  43.7600000  43.0700000  34.6600000  41.8500000  41.9400000
  35.3600000  41.1600000  41.7300000  33.2900000  41.5300000  41.6100000
  32.6600000  42.4200000  41.7300000  32.9900000  41.2200000  40.0900000
  33.3500000  40.2000000  39.9500000  31.5200000  41.2000000  39.7900000
  31.4500000  40.9300000  38.7400000  30.9700000  40.4700000  40.3800000
  31.1700000  42.2200000  39.9700000  33.6800000  42.2900000  39.2100000
  34.6900000  42.6000000  39.4700000  33.1800000  43.2400000  39.4200000
  33.5100000  42.0600000  37.7500000  34.2400000  42.5200000  37.0900000
  33.5500000  41.0200000  37.4300000  32.5200000  42.4000000  37.4300000
  32.6800000  40.5000000  42.5300000  31.4400000  40.6200000  42.9100000
  33.3700000  39.5700000  43.0800000  34.3300000  39.3400000  42.8500000
  32.8300000  38.6500000  44.0800000  31.8200000  38.3400000  43.8400000
  33.6700000  37.4200000  44.0400000  33.8600000  37.1400000  43.0000000
  35.0800000  37.6500000  44.6400000  35.6200000  36.7000000  44.6600000
  35.6000000  38.2100000  43.8700000  35.1700000  38.1600000  45.6000000
  33.0200000  36.2300000  44.7200000  33.7000000  35.4000000  44.8800000
  32.6500000  36.5700000  45.6900000  32.2000000  35.8400000  44.1200000
  32.8500000  39.3100000  45.5000000  32.2800000  38.8000000  46.4100000
  33.5100000  40.4800000  45.5500000  34.0400000  40.8900000  44.8000000
  33.5300000  41.2600000  46.7800000  33.3700000  40.6700000  47.6800000
  34.9000000  41.8800000  47.0000000  34.9900000  42.2700000  48.0100000
  35.0000000  42.6900000  46.2800000  35.9000000  40.8600000  46.7700000
  36.3200000  41.0900000  45.9400000  32.5300000  42.4700000  46.7100000
  32.5000000  43.2700000  47.6000000  31.5700000  42.5400000  45.6700000
  31.4100000  41.7900000  45.0200000  30.6900000  43.7600000  45.4800000
  31.2000000  44.6400000  45.8700000  30.2800000  43.7600000  43.9600000
  30.0100000  42.7100000  43.8600000  31.1800000  44.0400000  43.4100000
  29.0600000  44.7000000  43.7100000  28.1700000  44.2000000  43.0800000
  29.2300000  45.9700000  44.0000000  29.5600000  43.5600000  46.4300000
  29.6400000  44.0000000  47.5400000  28.5100000  42.7300000  46.0900000
  28.5100000  42.1400000  45.2700000  27.3700000  42.6900000  46.8600000
  26.7600000  43.6000000  46.8800000  27.4100000  42.6000000  47.9500000
  26.3800000  41.4700000  46.6500000  25.3200000  41.3500000  47.2900000
  26.7700000  40.5000000  45.8300000  27.5500000  40.6700000  45.2200000
  26.0800000  39.1600000  45.7100000  25.4700000  39.0300000  46.6000000
  25.0600000  39.2800000  44.5200000  25.5700000  39.1000000  43.5700000
  24.5600000  40.2500000  44.4700000  23.9600000  38.3500000  44.7500000
  23.8100000  37.7900000  45.7300000  23.1800000  38.0000000  43.6300000
  23.4100000  38.4600000  42.7600000  22.3100000  37.5400000  43.8600000
  26.9900000  37.9800000  45.5300000  26.6000000  36.8900000  45.6400000
  28.2900000  38.3400000  45.1800000  28.6500000  39.2800000  45.0900000
  29.3700000  37.3400000  45.1600000  29.3000000  36.7000000  46.0300000
  30.3300000  37.8400000  45.1600000  29.4900000  36.6500000  43.7400000
  29.5700000  37.3300000  42.7500000  29.7400000  35.3300000  43.7400000
  29.7300000  34.6700000  44.5100000  29.7200000  34.5800000  42.4600000
  30.4100000  35.1300000  41.8100000  30.2300000  33.2100000  42.5600000
  30.2700000  32.7900000  41.5600000  29.6400000  32.4700000  43.0900000
  31.6800000  33.1700000  43.0100000  31.7600000  33.3100000  44.0900000
  32.2700000  33.9700000  42.5600000  32.6500000  31.6000000  42.7900000
  32.8700000  31.3200000  41.0300000  32.0200000  30.7500000  40.6500000
  32.7700000  32.2400000  40.4500000  33.7900000  30.8000000  40.7600000
  28.3500000  34.4900000  41.8200000  28.3000000  34.3600000  40.6200000
  27.2600000  34.7700000  42.5100000  27.1000000  34.8500000  43.5000000
  25.9300000  34.7800000  41.8800000  25.7500000  33.7600000  41.5500000
  24.8700000  35.2800000  42.8800000  23.9500000  35.5600000  42.3600000
  25.2300000  36.0700000  43.5300000  24.5700000  34.2300000  43.9400000
  24.0800000  33.1500000  43.6000000  25.1400000  34.4100000  45.1000000
  25.6200000  35.2700000  45.3100000  25.3700000  33.5900000  45.6600000
  25.7600000  35.7200000  40.6800000  24.7000000  35.6800000  40.0100000
  26.7500000  36.6600000  40.4500000  27.5300000  36.6700000  41.1000000
  26.5800000  37.5600000  39.3200000  25.6900000  38.1700000  39.4600000
  27.8200000  38.5400000  39.4300000  27.6400000  39.4000000  38.7800000
  27.7900000  38.9600000  40.4400000  28.7600000  38.0700000  39.1400000
  26.5000000  36.9100000  37.8800000  25.6000000  37.2200000  37.1200000
  27.4100000  35.9900000  37.5200000  28.0800000  35.6700000  38.2000000
  27.4400000  35.1500000  36.3500000  27.4600000  35.7200000  35.4200000
  28.7400000  34.3500000  36.3100000  28.8100000  33.6400000  35.4800000
  28.8200000  33.5600000  37.0500000  29.9600000  35.2200000  36.2500000
  30.4500000  35.8900000  35.1900000  30.0600000  35.9400000  34.1800000
  31.6300000  36.4800000  35.4200000  32.3100000  37.0700000  34.9700000
  32.0700000  36.0500000  36.7700000  33.2900000  36.2500000  37.4800000
  34.0300000  36.8500000  36.9800000  33.4400000  35.6700000  38.6800000
  34.3200000  35.7600000  39.3000000  32.4300000  34.8500000  39.2400000
  32.5300000  34.3000000  40.1600000  31.1800000  34.6600000  38.4900000
  30.4500000  33.9900000  38.9200000  31.0100000  35.3300000  37.2200000
  26.2400000  34.1300000  36.2300000  26.0500000  33.2600000  37.0700000
  25.4900000  34.1500000  35.0600000  25.9200000  34.8100000  34.4200000
  24.3300000  33.3200000  34.8700000  23.7300000  33.5900000  35.7300000
  23.4200000  33.7700000  33.6000000  22.7900000  34.5600000  34.0300000
  24.3400000  34.1800000  32.4500000  23.7900000  34.1600000  31.5100000
  24.6500000  35.2200000  32.4800000  25.1600000  33.4800000  32.2900000
  22.5100000  32.6400000  33.1900000  21.8400000  32.8900000  32.3700000
  23.1100000  31.8200000  32.7900000  21.9600000  32.2100000  34.0200000
  24.6300000  31.8700000  35.0500000  23.9400000  31.0700000  35.6900000
  25.6900000  31.4300000  34.3900000  26.2900000  32.1300000  33.9800000
  26.0400000  30.0800000  34.3400000  25.2100000  29.4300000  34.0500000
  27.0500000  29.8700000  33.2200000  27.0800000  28.7800000  33.1400000
  26.7000000  30.2600000  32.2700000  27.9800000  30.3700000  33.5000000
  26.4700000  29.4900000  35.7000000  26.3700000  28.3100000  36.0100000
  26.9900000  30.3600000  36.5700000  27.1800000  31.3100000  36.2600000
  27.2700000  30.0100000  37.9300000  27.7600000  29.0400000  37.9200000
  28.3400000  30.8900000  38.5200000  27.9200000  31.8700000  38.7100000
  29.1700000  31.0400000  37.8300000  28.9200000  30.4100000  39.7900000
  29.8600000  29.5100000  39.9600000  30.4000000  29.1300000  39.1100000
  29.9500000  29.1600000  41.2600000  30.6300000  28.5400000  41.6700000
  29.1000000  29.9000000  42.0500000  28.7300000  29.7300000  43.4000000
  29.4300000  29.0700000  43.8900000  27.6800000  30.5400000  43.9000000
  27.5100000  30.4300000  44.9600000  27.0500000  31.4700000  43.1100000
  26.2200000  32.0300000  43.5200000  27.2800000  31.4700000  41.7400000
  26.6200000  32.0200000  41.0800000  28.3500000  30.6400000  41.1700000
  26.0400000  29.7900000  38.8500000  26.0000000  28.7300000  39.4800000
  25.1200000  30.7100000  38.7100000  25.1900000  31.5600000  38.1700000
  23.8200000  30.3500000  39.2500000  23.9200000  30.3000000  40.3400000
  22.7700000  31.5100000  38.8900000  21.8200000  31.0000000  39.0800000
  22.7200000  31.5800000  37.8100000  22.8900000  32.7400000  39.7100000
  23.6300000  33.3900000  39.2500000  23.1700000  32.6100000  40.7600000
  21.5600000  33.6300000  39.6300000  21.7000000  34.4800000  40.3000000
  20.7900000  33.1500000  40.2500000  21.1500000  33.9900000  38.2700000
  20.3800000  33.4600000  37.8900000  21.7300000  34.8400000  37.4500000
  21.1800000  34.9800000  36.3000000  20.2900000  34.6500000  35.9700000
  21.6400000  35.6800000  35.7200000  22.8700000  35.4800000  37.7400000
  23.2500000  35.4300000  38.6700000  23.2400000  36.1900000  37.1200000
  23.2500000  28.9900000  38.7700000  22.8500000  28.2500000  39.6100000
  23.2100000  28.6200000  37.4400000  23.5400000  29.3800000  36.8600000
  22.3700000  27.5700000  36.9900000  21.6900000  27.4000000  37.8300000
  21.6300000  28.2300000  35.7200000  21.2900000  27.3300000  35.2000000
  22.3400000  28.7200000  35.0500000  20.5200000  29.1600000  36.0900000
  20.6000000  29.8200000  37.1000000  19.5200000  29.3400000  35.3000000
  19.3800000  28.7300000  34.5000000  18.7300000  29.7900000  35.7200000
  23.0100000  26.1900000  36.6100000  22.2500000  25.2500000  36.2300000
  24.2800000  26.0200000  36.6600000  24.7100000  26.8300000  37.1000000
  24.9800000  24.8500000  36.2000000  24.2700000  24.0200000  36.2700000
  25.3700000  24.9700000  34.7100000  26.1100000  24.2600000  34.3300000
  25.9300000  25.8600000  34.4100000  24.1300000  24.9300000  33.8000000
  23.3600000  25.6500000  34.0700000  23.8200000  23.8800000  33.8300000
  24.4500000  25.2900000  32.3700000  23.7700000  24.7300000  31.7100000
  25.3800000  24.8200000  32.0400000  24.4800000  26.7400000  32.1700000
  24.0500000  27.3000000  32.8900000  24.9300000  27.3100000  31.1200000
  25.3700000  26.7300000  30.0600000  25.2100000  25.7300000  30.0800000
  25.7400000  27.1000000  29.2000000  24.9700000  28.6300000  30.9300000
  24.4900000  29.2300000  31.5900000  25.3300000  28.9600000  30.0500000
  26.2800000  24.3700000  37.0200000  26.9800000  23.4700000  36.6300000
  26.3900000  24.9800000  38.2900000  25.6500000  25.6600000  38.3000000
  27.6300000  24.7600000  39.1200000  27.9300000  23.7200000  39.0500000
  28.6900000  25.8000000  38.7500000  29.5200000  25.6600000  39.4500000
  28.3600000  26.8400000  38.7700000  29.4000000  25.4400000  37.1300000
  27.2300000  25.0400000  40.6300000  27.5900000  24.2200000  41.4200000
  26.6100000  26.1900000  41.0200000  26.6000000  26.8300000  40.2300000
  25.9200000  26.4600000  42.3000000  26.7100000  26.4900000  43.0500000
  25.1200000  27.7800000  42.1700000  24.5100000  27.8200000  41.2700000
  25.7800000  28.6400000  42.1700000  24.2300000  28.1200000  43.4000000
  24.7700000  27.8900000  44.3200000  23.4100000  27.4200000  43.2800000
  23.7900000  29.5600000  43.4500000  23.1300000  29.8000000  42.6200000
  24.7100000  30.1400000  43.4300000  22.8900000  30.0800000  44.6500000
  23.6300000  30.3200000  45.4100000  22.2000000  29.2800000  44.9200000
  22.1900000  31.3600000  44.4000000  21.9100000  31.7600000  45.2800000
  22.7400000  32.0600000  43.9200000  21.4100000  31.1800000  43.7800000
  25.1100000  25.2500000  42.5900000  24.1000000  25.0500000  41.9000000
  25.5500000  24.4400000  43.5700000  26.3400000  24.7300000  44.1200000
  24.7900000  23.2200000  44.0000000  23.7800000  23.2300000  43.5900000
  24.7600000  23.1600000  45.0900000  25.4300000  21.8400000  43.5500000
  24.9700000  20.8600000  44.0300000  26.5600000  21.9000000  42.8700000
  27.0200000  22.7800000  42.7200000  27.2200000  20.7000000  42.3300000
  26.6100000  19.8100000  42.4600000  27.5500000  20.7300000  40.8200000
  28.0300000  19.8100000  40.4900000  26.2500000  20.9300000  39.9500000
  26.3200000  20.8900000  38.8700000  25.6700000  20.0200000  40.1500000
  25.7800000  21.8500000  40.2900000  28.4600000  21.8000000  40.4500000
  28.1000000  22.6100000  40.8000000  28.4300000  20.1200000  43.1200000
  28.7400000  20.6800000  44.2400000  29.1500000  19.2300000  42.5600000
  28.8500000  18.5600000  41.8600000  30.5600000  18.7500000  43.0800000
  30.5500000  18.8700000  44.1600000  30.7600000  17.2600000  42.9500000
  30.8400000  16.8500000  41.9400000  29.9700000  16.8300000  43.5700000
  31.9100000  16.6800000  43.6600000  31.8800000  15.4500000  43.9300000
  32.9100000  17.4500000  43.9900000  31.6100000  19.6000000  42.2900000
  32.1800000  19.1200000  41.3000000  31.7900000  20.8000000  42.7700000
  31.3500000  21.0900000  43.6300000  32.6800000  21.7600000  42.1000000
  32.3600000  21.6900000  41.0600000  32.3500000  23.1200000  42.6800000
  32.9000000  23.8300000  42.0700000  30.8400000  23.4100000  42.6100000
  30.6700000  24.3500000  43.1300000  30.6000000  23.4200000  41.5400000
  30.2500000  22.6100000  43.0600000  32.9000000  23.2700000  44.1200000
  32.4300000  24.1200000  44.6200000  32.7600000  22.4000000  44.7500000
  33.9500000  23.5700000  44.0000000  34.1600000  21.3300000  42.2400000
  34.9700000  22.0300000  41.5900000  34.6200000  20.4000000  43.0300000
  34.0200000  19.7800000  43.5500000  36.0100000  19.8800000  43.0600000
  36.6000000  20.7900000  42.9800000  36.2200000  19.1400000  44.3500000
  35.6900000  18.1900000  44.3000000  35.7800000  19.8800000  45.0200000
  37.6800000  18.7200000  44.7300000  38.3900000  19.5200000  44.5100000
  37.9400000  17.8400000  44.1500000  37.7900000  18.4200000  46.1900000
  38.0000000  19.3000000  47.0000000  37.7400000  17.1000000  46.6400000
  37.5100000  16.4500000  45.9100000  37.8100000  16.8500000  47.6100000
  36.3400000  19.0400000  41.8000000  37.5400000  18.9200000  41.4300000
  35.3600000  18.4200000  41.2000000  34.3800000  18.5500000  41.4300000
  35.4600000  17.6100000  39.9600000  35.8800000  16.6700000  40.3300000
  34.0800000  17.4000000  39.3900000  34.2300000  16.8100000  38.4900000
  33.4500000  16.8300000  40.0900000  33.5800000  18.3000000  39.0500000
  36.4300000  18.1600000  38.9300000  37.2600000  17.4600000  38.3400000
  36.3500000  19.5200000  38.7300000  35.7800000  20.1000000  39.3300000
  37.2000000  20.2300000  37.7800000  37.2300000  19.6000000  36.8900000
  36.5700000  21.5700000  37.4400000  37.0000000  22.0300000  36.5500000
  36.6300000  22.3200000  38.2200000  35.0600000  21.5400000  37.2200000
  34.1700000  21.7000000  38.2200000  34.4200000  22.0000000  39.2200000
  32.9200000  21.3300000  37.6300000  32.1000000  21.3500000  38.2100000
  32.9600000  20.9000000  36.3500000  32.0600000  20.4000000  35.4300000
  31.0600000  20.2200000  35.8000000  32.5400000  19.8900000  34.1900000
  31.8100000  19.3700000  33.5900000  33.8800000  20.1000000  33.8800000
  34.2700000  19.6600000  32.9800000  34.7800000  20.7200000  34.7800000
  35.8400000  20.8300000  34.6000000  34.4200000  21.1800000  36.0300000
  38.6900000  20.4500000  38.1000000  39.4600000  20.8400000  37.2500000
  39.1200000  20.0800000  39.2700000  38.3800000  19.8400000  39.9100000
  40.5000000  20.0500000  39.7000000  41.2200000  20.2600000  38.9200000
  40.8000000  21.1000000  40.8100000  41.8000000  21.1100000  41.2300000
  40.7200000  22.5100000  40.1500000  40.7300000  23.2800000  40.9200000
  41.6000000  22.6900000  39.5300000  39.8500000  22.5400000  39.4900000
  39.8600000  20.9500000  42.0300000  39.7900000  19.9000000  42.2900000
  38.8800000  21.3200000  41.7300000  40.3800000  21.6800000  43.3000000
  39.6600000  21.6100000  44.1100000  41.3100000  21.1900000  43.5900000
  40.6600000  22.7300000  43.1800000  41.0200000  18.6300000  40.0700000
  42.1100000  18.5200000  40.6200000  40.2600000  17.5600000  39.8000000
  39.3100000  17.7300000  39.4900000  40.6300000  16.1400000  39.7900000
  41.3400000  15.9900000  40.6000000  39.5200000  15.0900000  39.8900000
  40.1000000  14.1800000  39.7400000  38.9600000  15.0900000  38.9600000
  38.7400000  15.2200000  41.1400000  38.5300000  16.2800000  41.3000000
  39.1300000  14.8900000  42.1000000  37.4300000  14.5700000  41.1400000
  37.5700000  13.5000000  40.9600000  36.8600000  14.8200000  40.2400000
  36.4900000  14.7500000  42.3200000  36.9900000  14.6100000  43.1900000
  35.2300000  14.8400000  42.4800000  34.3300000  14.7200000  41.5400000
  34.5800000  14.5100000  40.5800000  33.3600000  14.6300000  41.8000000
  34.7100000  15.0600000  43.6800000  35.2400000  15.0300000  44.5400000
  33.7600000  15.4000000  43.7500000  41.4900000  15.8600000  38.5100000
  41.2300000  16.5700000  37.5000000  42.5000000  14.9900000  38.5000000
  42.5800000  14.5900000  39.4200000  43.4700000  14.8200000  37.4600000
  43.0000000  14.9800000  36.5000000  44.0600000  13.9100000  37.5900000
  44.6500000  15.8800000  37.5700000  45.7600000  15.5200000  37.5200000
  44.2500000  17.1700000  37.6900000  43.2800000  17.4100000  37.5400000
  45.2400000  18.3100000  37.8600000  45.9200000  18.2500000  37.0100000
  44.3800000  19.5500000  37.8500000  45.1200000  20.3500000  37.7600000
  43.9600000  19.6700000  38.8500000  43.0800000  19.8000000  36.6300000
  46.0400000  18.2000000  39.1300000  45.4500000  18.2500000  40.2400000
  47.3700000  18.0700000  38.9900000  47.7700000  18.2100000  38.0700000
  48.2700000  18.0800000  40.1200000  47.6400000  18.0600000  41.0100000
  49.1900000  16.9100000  40.0400000  49.8300000  17.1000000  39.1800000
  48.7000000  15.9400000  40.1300000  49.9400000  16.7800000  41.3600000
  50.4800000  15.8500000  41.5000000  49.2700000  16.4600000  42.1700000
  50.9100000  17.9000000  41.7900000  50.9700000  17.8400000  42.8800000
  50.6500000  18.9300000  41.5800000  52.3200000  17.6800000  41.3800000
  52.6300000  16.7400000  41.5800000  53.1900000  18.5500000  40.9500000
  54.4500000  18.2000000  40.6800000  54.8900000  17.3100000  40.8500000
  55.0300000  18.9800000  40.3800000  52.7800000  19.7400000  40.5400000
  51.8700000  19.8800000  40.9600000  53.5100000  20.4300000  40.4400000
  48.8100000  19.5500000  40.0900000  49.7000000  19.6500000  39.1200000
  48.2800000  20.4800000  40.7300000  47.3400000  20.3400000  41.0800000
  48.7500000  21.9100000  40.5900000  48.9800000  21.9800000  39.5300000
  47.7300000  22.9900000  40.9400000  48.1500000  23.9900000  40.8400000
  47.5000000  22.9400000  42.0100000  46.2600000  23.1100000  40.2900000
  45.9100000  24.0800000  40.6100000  46.4000000  22.9500000  38.8000000
  45.4200000  23.0900000  38.3300000  47.2200000  23.5400000  38.4000000
  46.6400000  21.8900000  38.6700000  45.4400000  22.0700000  40.9200000
  44.3800000  22.2200000  40.7100000  45.6600000  21.0700000  40.5400000
  45.6100000  22.0200000  42.0000000  50.2000000  22.1300000  41.1000000
  50.7500000  21.1600000  41.6900000  50.8200000  23.2300000  40.8900000
