%VERSION  VERSION_STAMP = V0001.000  DATE = 12/18/25  09:33:18
%FLAG TITLE
%FORMAT(20a4)

%FLAG POINTERS
%FORMAT(10I8)
      11      28       8       2      17       1      18       0       0       0
      47       1       2       1       0       2       3       2       1       0
       0       0       0       0       0       0       0       0      11       0
       0
%FLAG ATOM_NAME
%FORMAT(20a4)
C   C1  C2  H   H1  H2  H3  H4  H5  H6  H7  
%FLAG CHARGE
%FORMAT(5E16.8)
 -1.69649613E+00 -1.48329522E+00 -1.69649613E+00  5.89801184E-01  5.89801184E-01
  5.89801184E-01  6.68758410E-01  6.68758410E-01  5.89801184E-01  5.89801184E-01
  5.89801184E-01
%FLAG ATOMIC_NUMBER
%FORMAT(10I8)
       6       6       6       1       1       1       1       1       1       1
       1
%FLAG MASS
%FORMAT(5E16.8)
  1.20100000E+01  1.20100000E+01  1.20100000E+01  1.00800000E+00  1.00800000E+00
  1.00800000E+00  1.00800000E+00  1.00800000E+00  1.00800000E+00  1.00800000E+00
  1.00800000E+00
%FLAG ATOM_TYPE_INDEX
%FORMAT(10I8)
      27      27      27      28      28      28      28      28      28      28
      28
%FLAG NUMBER_EXCLUDED_ATOMS
%FORMAT(10I8)
      10       9       8       4       3       2       4       3       2       1
       1
%FLAG NONBONDED_PARM_INDEX
%FORMAT(10I8)
       1       2       4       7      11      16      22      29      37      46
      56      67      79      92     106     121     137     154     172     191
     211     232     254     277     301     326     352     379       2       3
       5       8      12      17      23      30      38      47      57      68
      80      93     107     122     138     155     173     192     212     233
     255     278     302     327     353     380       4       5       6       9
      13      18      24      31      39      48      58      69      81      94
     108     123     139     156     174     193     213     234     256     279
     303     328     354     381       7       8       9      10      14      19
      25      32      40      49      59      70      82      95     109     124
     140     157     175     194     214     235     257     280     304     329
     355     382      11      12      13      14      15      20      26      33
      41      50      60      71      83      96     110     125     141     158
     176     195     215     236     258     281     305     330     356     383
      16      17      18      19      20      21      27      34      42      51
      61      72      84      97     111     126     142     159     177     196
     216     237     259     282     306     331     357     384      22      23
      24      25      26      27      28      35      43      52      62      73
      85      98     112     127     143     160     178     197     217     238
     260     283     307     332     358     385      29      30      31      32
      33      34      35      36      44      53      63      74      86      99
     113     128     144     161     179     198     218     239     261     284
     308     333     359     386      37      38      39      40      41      42
      43      44      45      54      64      75      87     100     114     129
     145     162     180     199     219     240     262     285     309     334
     360     387      46      47      48      49      50      51      52      53
      54      55      65      76      88     101     115     130     146     163
     181     200     220     241     263     286     310     335     361     388
      56      57      58      59      60      61      62      63      64      65
      66      77      89     102     116     131     147     164     182     201
     221     242     264     287     311     336     362     389      67      68
      69      70      71      72      73      74      75      76      77      78
      90     103     117     132     148     165     183     202     222     243
     265     288     312     337     363     390      79      80      81      82
      83      84      85      86      87      88      89      90      91     104
     118     133     149     166     184     203     223     244     266     289
     313     338     364     391      92      93      94      95      96      97
      98      99     100     101     102     103     104     105     119     134
     150     167     185     204     224     245     267     290     314     339
     365     392     106     107     108     109     110     111     112     113
     114     115     116     117     118     119     120     135     151     168
     186     205     225     246     268     291     315     340     366     393
     121     122     123     124     125     126     127     128     129     130
     131     132     133     134     135     136     152     169     187     206
     226     247     269     292     316     341     367     394     137     138
     139     140     141     142     143     144     145     146     147     148
     149     150     151     152     153     170     188     207     227     248
     270     293     317     342     368     395     154     155     156     157
     158     159     160     161     162     163     164     165     166     167
     168     169     170     171     189     208     228     249     271     294
     318     343     369     396     172     173     174     175     176     177
     178     179     180     181     182     183     184     185     186     187
     188     189     190     209     229     250     272     295     319     344
     370     397     191     192     193     194     195     196     197     198
     199     200     201     202     203     204     205     206     207     208
     209     210     230     251     273     296     320     345     371     398
     211     212     213     214     215     216     217     218     219     220
     221     222     223     224     225     226     227     228     229     230
     231     252     274     297     321     346     372     399     232     233
     234     235     236     237     238     239     240     241     242     243
     244     245     246     247     248     249     250     251     252     253
     275     298     322     347     373     400     254     255     256     257
     258     259     260     261     262     263     264     265     266     267
     268     269     270     271     272     273     274     275     276     299
     323     348     374     401     277     278     279     280     281     282
     283     284     285     286     287     288     289     290     291     292
     293     294     295     296     297     298     299     300     324     349
     375     402     301     302     303     304     305     306     307     308
     309     310     311     312     313     314     315     316     317     318
     319     320     321     322     323     324     325     350     376     403
     326     327     328     329     330     331     332     333     334     335
     336     337     338     339     340     341     342     343     344     345
     346     347     348     349     350     351     377     404     352     353
     354     355     356     357     358     359     360     361     362     363
     364     365     366     367     368     369     370     371     372     373
     374     375     376     377     378     405     379     380     381     382
     383     384     385     386     387     388     389     390     391     392
     393     394     395     396     397     398     399     400     401     402
     403     404     405     406
%FLAG RESIDUE_LABEL
%FORMAT(20a4)
LIG 
%FLAG RESIDUE_POINTER
%FORMAT(10I8)
       1
%FLAG BOND_FORCE_CONSTANT
%FORMAT(5E16.8)
  2.28890000E+02  3.45250000E+02
%FLAG BOND_EQUIL_VALUE
%FORMAT(5E16.8)
  1.53540000E+00  1.09620000E+00
%FLAG ANGLE_FORCE_CONSTANT
%FORMAT(5E16.8)
  5.98700000E+01  4.32700000E+01  3.58000000E+01
%FLAG ANGLE_EQUIL_VALUE
%FORMAT(5E16.8)
  1.96576518E+00  1.91427794E+00  1.88024401E+00
%FLAG DIHEDRAL_FORCE_CONSTANT
%FORMAT(5E16.8)
  1.30000000E-01  1.20000000E-01
%FLAG DIHEDRAL_PERIODICITY
%FORMAT(5E16.8)
  3.00000000E+00  3.00000000E+00
%FLAG DIHEDRAL_PHASE
%FORMAT(5E16.8)
  0.00000000E+00  0.00000000E+00
%FLAG SCEE_SCALE_FACTOR
%FORMAT(5E16.8)
  1.20004800E+00  1.20004800E+00
%FLAG SCNB_SCALE_FACTOR
%FORMAT(5E16.8)
  2.00000000E+00  2.00000000E+00
%FLAG SOLTY
%FORMAT(5E16.8)
  0.00000000E+00
%FLAG LENNARD_JONES_ACOEF
%FORMAT(5E16.8)
  9.44298380E+05  2.12602962E+03  1.39985194E-01  9.95484436E+05  2.56679645E+03
  1.04308295E+06  2.01793421E+04  9.14732706E+00  2.27402838E+04  2.01827026E+02
  8.96774597E+04  1.07193213E+02  9.71704116E+04  1.41077201E+03  7.51598214E+03
  8.82622205E+05  2.27578801E+03  9.24824278E+05  2.01621228E+04  8.61537959E+04
  8.19973085E+05  6.06828844E+05  1.02595125E+03  6.47840291E+05  1.12780710E+04
  5.44255582E+04  5.74391930E+05  3.79873471E+05  9.44298380E+05  2.12602962E+03
  9.95484436E+05  2.01793421E+04  8.96774597E+04  8.82622205E+05  6.06828844E+05
  9.44298380E+05  6.20663956E+04  5.94664265E+01  6.78768123E+04  8.79040353E+02
  4.98580034E+03  6.01813344E+04  3.69467493E+04  6.20663956E+04  3.25964807E+03
  8.82622205E+05  2.27578801E+03  9.24824278E+05  2.01621228E+04  8.61537959E+04
  8.19973085E+05  5.74391930E+05  8.82622205E+05  6.01813344E+04  8.19973085E+05
  7.91625558E+04  8.90984823E+01  8.59943994E+04  1.21015026E+03  6.55817734E+03
  7.62448549E+04  4.77903685E+04  7.91625558E+04  4.33319814E+03  7.62448549E+04
  5.71623111E+03  9.44298380E+05  2.12602962E+03  9.95484436E+05  2.01793421E+04
  8.96774597E+04  8.82622205E+05  6.06828844E+05  9.44298380E+05  6.20663956E+04
  8.82622205E+05  7.91625558E+04  9.44298380E+05  2.01560984E+06  5.97855536E+03
  2.09860275E+06  4.93467119E+04  2.02458854E+05  1.86067538E+06  1.32909396E+06
  2.01560984E+06  1.42789198E+05  1.86067538E+06  1.79645432E+05  2.01560984E+06
  4.19423518E+06  6.06828844E+05  1.02595125E+03  6.47840291E+05  1.12780710E+04
  5.44255582E+04  5.74391930E+05  3.79873471E+05  6.06828844E+05  3.69467493E+04
  5.74391930E+05  4.77903685E+04  6.06828844E+05  1.32909396E+06  3.79873471E+05
  8.82622205E+05  2.27578801E+03  9.24824278E+05  2.01621228E+04  8.61537959E+04
  8.19973085E+05  5.74391930E+05  8.82622205E+05  6.01813344E+04  8.19973085E+05
  7.62448549E+04  8.82622205E+05  1.86067538E+06  5.74391930E+05  8.19973085E+05
  9.44298380E+05  2.12602962E+03  9.95484436E+05  2.01793421E+04  8.96774597E+04
  8.82622205E+05  6.06828844E+05  9.44298380E+05  6.20663956E+04  8.82622205E+05
  7.91625558E+04  9.44298380E+05  2.01560984E+06  6.06828844E+05  8.82622205E+05
  9.44298380E+05  8.82622205E+05  2.27578801E+03  9.24824278E+05  2.01621228E+04
  8.61537959E+04  8.19973085E+05  5.74391930E+05  8.82622205E+05  6.01813344E+04
  8.19973085E+05  7.62448549E+04  8.82622205E+05  1.86067538E+06  5.74391930E+05
  8.19973085E+05  8.82622205E+05  8.19973085E+05  5.46145821E+04  4.90237952E+01
  5.98883162E+04  7.50063314E+02  4.33319814E+03  5.30985275E+04  3.23280303E+04
  5.46145821E+04  2.82095212E+03  5.30985275E+04  3.76164453E+03  5.46145821E+04
  1.26336567E+05  3.23280303E+04  5.30985275E+04  5.46145821E+04  5.30985275E+04
  2.43825342E+03  9.44298380E+05  2.12602962E+03  9.95484436E+05  2.01793421E+04
  8.96774597E+04  8.82622205E+05  6.06828844E+05  9.44298380E+05  6.20663956E+04
  8.82622205E+05  7.91625558E+04  9.44298380E+05  2.01560984E+06  6.06828844E+05
  8.82622205E+05  9.44298380E+05  8.82622205E+05  5.46145821E+04  9.44298380E+05
  8.82622205E+05  2.27578801E+03  9.24824278E+05  2.01621228E+04  8.61537959E+04
  8.19973085E+05  5.74391930E+05  8.82622205E+05  6.01813344E+04  8.19973085E+05
  7.62448549E+04  8.82622205E+05  1.86067538E+06  5.74391930E+05  8.19973085E+05
  8.82622205E+05  8.19973085E+05  5.30985275E+04  8.82622205E+05  8.19973085E+05
  6.58472345E+04  6.63365939E+01  7.18618329E+04  9.55000639E+02  5.34038684E+03
  6.37145566E+04  3.93686941E+04  6.58472345E+04  3.50296315E+03  6.37145566E+04
  4.64553649E+03  6.58472345E+04  1.50845809E+05  3.93686941E+04  6.37145566E+04
  6.58472345E+04  6.37145566E+04  3.03444091E+03  6.58472345E+04  6.37145566E+04
  3.76164453E+03  7.44973328E+05  1.40466301E+03  7.91540428E+05  1.45985337E+04
  6.82777934E+04  7.01800181E+05  4.70998433E+05  7.44973328E+05  4.66916113E+04
  7.01800181E+05  6.00742915E+04  7.44973328E+05  1.61585549E+06  4.70998433E+05
  7.01800181E+05  7.44973328E+05  7.01800181E+05  4.09422209E+04  7.44973328E+05
  7.01800181E+05  4.96701032E+04  5.81795780E+05  0.00000000E+00  0.00000000E+00
  0.00000000E+00  0.00000000E+00  0.00000000E+00  0.00000000E+00  0.00000000E+00
  0.00000000E+00  0.00000000E+00  0.00000000E+00  0.00000000E+00  0.00000000E+00
  0.00000000E+00  0.00000000E+00  0.00000000E+00  0.00000000E+00  0.00000000E+00
  0.00000000E+00  0.00000000E+00  0.00000000E+00  0.00000000E+00  0.00000000E+00
  0.00000000E+00  8.82622205E+05  2.27578801E+03  9.24824278E+05  2.01621228E+04
  8.61537959E+04  8.19973085E+05  5.74391930E+05  8.82622205E+05  6.01813344E+04
  8.19973085E+05  7.62448549E+04  8.82622205E+05  1.86067538E+06  5.74391930E+05
  8.19973085E+05  8.82622205E+05  8.19973085E+05  5.30985275E+04  8.82622205E+05
  8.19973085E+05  6.37145566E+04  7.01800181E+05  0.00000000E+00  8.19973085E+05
  8.82622205E+05  2.27578801E+03  9.24824278E+05  2.01621228E+04  8.61537959E+04
  8.19973085E+05  5.74391930E+05  8.82622205E+05  6.01813344E+04  8.19973085E+05
  7.62448549E+04  8.82622205E+05  1.86067538E+06  5.74391930E+05  8.19973085E+05
  8.82622205E+05  8.19973085E+05  5.30985275E+04  8.82622205E+05  8.19973085E+05
  6.37145566E+04  7.01800181E+05  0.00000000E+00  8.19973085E+05  8.19973085E+05
  8.82622205E+05  2.27578801E+03  9.24824278E+05  2.01621228E+04  8.61537959E+04
  8.19973085E+05  5.74391930E+05  8.82622205E+05  6.01813344E+04  8.19973085E+05
  7.62448549E+04  8.82622205E+05  1.86067538E+06  5.74391930E+05  8.19973085E+05
  8.82622205E+05  8.19973085E+05  5.30985275E+04  8.82622205E+05  8.19973085E+05
  6.37145566E+04  7.01800181E+05  0.00000000E+00  8.19973085E+05  8.19973085E+05
  8.19973085E+05  9.84687168E+05  2.53457466E+03  1.03184980E+06  2.24744846E+04
  9.60827179E+04  9.14864674E+05  6.40710223E+05  9.84687168E+05  6.71090975E+04
  9.14864674E+05  8.50290554E+04  9.84687168E+05  2.07617165E+06  6.40710223E+05
  9.14864674E+05  9.84687168E+05  9.14864674E+05  5.92089205E+04  9.84687168E+05
  9.14864674E+05  7.10509349E+04  7.82876544E+05  0.00000000E+00  9.14864674E+05
  9.14864674E+05  9.14864674E+05  1.02073660E+06  9.33220444E+04  1.05103968E+02
  1.01373087E+05  1.42704963E+03  7.73218643E+03  8.98799962E+04  5.63416780E+04
  9.33220444E+04  5.10912397E+03  8.98799962E+04  6.73959896E+03  9.33220444E+04
  2.11766020E+05  5.63416780E+04  8.98799962E+04  9.33220444E+04  8.98799962E+04
  4.43528087E+03  9.33220444E+04  8.98799962E+04  5.47733791E+03  7.08220657E+04
  0.00000000E+00  8.98799962E+04  8.98799962E+04  8.98799962E+04  1.00235142E+05
  7.94617774E+03
%FLAG LENNARD_JONES_BCOEF
%FORMAT(5E16.8)
  8.01325713E+02  2.09605075E+01  9.37607070E-02  7.36909048E+02  2.06279015E+01
  6.75613424E+02  6.45759258E+01  7.57926210E-01  6.13984312E+01  3.56015972E+00
  1.36131549E+02  2.59455850E+00  1.26918916E+02  9.41257043E+00  2.17256456E+01
  6.53362589E+02  1.82892301E+01  5.99016307E+02  5.44374344E+01  1.12529588E+02
  5.31103324E+02  6.77220596E+02  1.53505201E+01  6.26719521E+02  5.08952374E+01
  1.11804988E+02  5.55665709E+02  5.64883807E+02  8.01325713E+02  2.09605075E+01
  7.36909048E+02  6.45759258E+01  1.36131549E+02  6.53362589E+02  6.77220596E+02
  8.01325713E+02  1.13251875E+02  1.93248327E+00  1.06076713E+02  7.42992155E+00
  1.76948654E+01  9.40503526E+01  9.21187103E+01  1.13251875E+02  1.43075469E+01
  6.53362589E+02  1.82892301E+01  5.99016307E+02  5.44374344E+01  1.12529588E+02
  5.31103324E+02  5.55665709E+02  6.53362589E+02  9.40503526E+01  5.31103324E+02
  1.26451779E+02  2.33863732E+00  1.18043566E+02  8.61881131E+00  2.00640823E+01
  1.04660473E+02  1.03580457E+02  1.26451779E+02  1.63091752E+01  1.04660473E+02
  1.85195536E+01  8.01325713E+02  2.09605075E+01  7.36909048E+02  6.45759258E+01
  1.36131549E+02  6.53362589E+02  6.77220596E+02  8.01325713E+02  1.13251875E+02
  6.53362589E+02  1.26451779E+02  8.01325713E+02  1.28923018E+03  3.87068686E+01
  1.17824211E+03  1.11203645E+02  2.25246628E+02  1.04465988E+03  1.10369141E+03
  1.28923018E+03  1.89163608E+02  1.04465988E+03  2.09771219E+02  1.28923018E+03
  2.04798320E+03  6.77220596E+02  1.53505201E+01  6.26719521E+02  5.08952374E+01
  1.11804988E+02  5.55665709E+02  5.64883807E+02  6.77220596E+02  9.21187103E+01
  5.55665709E+02  1.03580457E+02  6.77220596E+02  1.10369141E+03  5.64883807E+02
  6.53362589E+02  1.82892301E+01  5.99016307E+02  5.44374344E+01  1.12529588E+02
  5.31103324E+02  5.55665709E+02  6.53362589E+02  9.40503526E+01  5.31103324E+02
  1.04660473E+02  6.53362589E+02  1.04465988E+03  5.55665709E+02  5.31103324E+02
  8.01325713E+02  2.09605075E+01  7.36909048E+02  6.45759258E+01  1.36131549E+02
  6.53362589E+02  6.77220596E+02  8.01325713E+02  1.13251875E+02  6.53362589E+02
  1.26451779E+02  8.01325713E+02  1.28923018E+03  6.77220596E+02  6.53362589E+02
  8.01325713E+02  6.53362589E+02  1.82892301E+01  5.99016307E+02  5.44374344E+01
  1.12529588E+02  5.31103324E+02  5.55665709E+02  6.53362589E+02  9.40503526E+01
  5.31103324E+02  1.04660473E+02  6.53362589E+02  1.04465988E+03  5.55665709E+02
  5.31103324E+02  6.53362589E+02  5.31103324E+02  1.05031447E+02  1.73472720E+00
  9.85095391E+01  6.78541924E+00  1.63091752E+01  8.73411009E+01  8.51916944E+01
  1.05031447E+02  1.31590816E+01  8.73411009E+01  1.50232710E+01  1.05031447E+02
  1.75914788E+02  8.51916944E+01  8.73411009E+01  1.05031447E+02  8.73411009E+01
  1.20952555E+01  8.01325713E+02  2.09605075E+01  7.36909048E+02  6.45759258E+01
  1.36131549E+02  6.53362589E+02  6.77220596E+02  8.01325713E+02  1.13251875E+02
  6.53362589E+02  1.26451779E+02  8.01325713E+02  1.28923018E+03  6.77220596E+02
  6.53362589E+02  8.01325713E+02  6.53362589E+02  1.05031447E+02  8.01325713E+02
  6.53362589E+02  1.82892301E+01  5.99016307E+02  5.44374344E+01  1.12529588E+02
  5.31103324E+02  5.55665709E+02  6.53362589E+02  9.40503526E+01  5.31103324E+02
  1.04660473E+02  6.53362589E+02  1.04465988E+03  5.55665709E+02  5.31103324E+02
  6.53362589E+02  5.31103324E+02  8.73411009E+01  6.53362589E+02  5.31103324E+02
  1.15327748E+02  2.01792169E+00  1.07908680E+02  7.65648709E+00  1.81056484E+01
  9.56746222E+01  9.40119668E+01  1.15327748E+02  1.46637655E+01  9.56746222E+01
  1.66952745E+01  1.15327748E+02  1.92222595E+02  9.40119668E+01  9.56746222E+01
  1.15327748E+02  9.56746222E+01  1.34932003E+01  1.15327748E+02  9.56746222E+01
  1.50232710E+01  7.50713233E+02  1.79701816E+01  6.93078545E+02  5.79323320E+01
  1.25287035E+02  6.14501334E+02  6.29297540E+02  7.50713233E+02  1.03606218E+02
  6.14501334E+02  1.16187290E+02  7.50713233E+02  1.21752459E+03  6.29297540E+02
  6.14501334E+02  7.50713233E+02  6.14501334E+02  9.59179730E+01  7.50713233E+02
  6.14501334E+02  1.05648133E+02  6.99742489E+02  0.00000000E+00  0.00000000E+00
  0.00000000E+00  0.00000000E+00  0.00000000E+00  0.00000000E+00  0.00000000E+00
  0.00000000E+00  0.00000000E+00  0.00000000E+00  0.00000000E+00  0.00000000E+00
  0.00000000E+00  0.00000000E+00  0.00000000E+00  0.00000000E+00  0.00000000E+00
  0.00000000E+00  0.00000000E+00  0.00000000E+00  0.00000000E+00  0.00000000E+00
  0.00000000E+00  6.53362589E+02  1.82892301E+01  5.99016307E+02  5.44374344E+01
  1.12529588E+02  5.31103324E+02  5.55665709E+02  6.53362589E+02  9.40503526E+01
  5.31103324E+02  1.04660473E+02  6.53362589E+02  1.04465988E+03  5.55665709E+02
  5.31103324E+02  6.53362589E+02  5.31103324E+02  8.73411009E+01  6.53362589E+02
  5.31103324E+02  9.56746222E+01  6.14501334E+02  0.00000000E+00  5.31103324E+02
  6.53362589E+02  1.82892301E+01  5.99016307E+02  5.44374344E+01  1.12529588E+02
  5.31103324E+02  5.55665709E+02  6.53362589E+02  9.40503526E+01  5.31103324E+02
  1.04660473E+02  6.53362589E+02  1.04465988E+03  5.55665709E+02  5.31103324E+02
  6.53362589E+02  5.31103324E+02  8.73411009E+01  6.53362589E+02  5.31103324E+02
  9.56746222E+01  6.14501334E+02  0.00000000E+00  5.31103324E+02  5.31103324E+02
  6.53362589E+02  1.82892301E+01  5.99016307E+02  5.44374344E+01  1.12529588E+02
  5.31103324E+02  5.55665709E+02  6.53362589E+02  9.40503526E+01  5.31103324E+02
  1.04660473E+02  6.53362589E+02  1.04465988E+03  5.55665709E+02  5.31103324E+02
  6.53362589E+02  5.31103324E+02  8.73411009E+01  6.53362589E+02  5.31103324E+02
  9.56746222E+01  6.14501334E+02  0.00000000E+00  5.31103324E+02  5.31103324E+02
  5.31103324E+02  7.30207107E+02  2.04226523E+01  6.69495023E+02  6.08141259E+01
  1.25742543E+02  5.93591574E+02  6.20969595E+02  7.30207107E+02  1.05087316E+02
  5.93591574E+02  1.16947563E+02  7.30207107E+02  1.16761944E+03  6.20969595E+02
  5.93591574E+02  7.30207107E+02  5.93591574E+02  9.75890459E+01  7.30207107E+02
  5.93591574E+02  1.06903617E+02  6.86740736E+02  0.00000000E+00  5.93591574E+02
  5.93591574E+02  5.93591574E+02  6.63431700E+02  1.48987620E+02  2.75632421E+00
  1.39079010E+02  1.01564113E+01  2.36413298E+01  1.23311041E+02  1.22043749E+02
  1.48987620E+02  1.92173705E+01  1.23311041E+02  2.18215538E+01  1.48987620E+02
  2.47149064E+02  1.22043749E+02  1.23311041E+02  1.48987620E+02  1.23311041E+02
  1.77022801E+01  1.48987620E+02  1.23311041E+02  1.96722218E+01  1.36896268E+02
  0.00000000E+00  1.23311041E+02  1.23311041E+02  1.23311041E+02  1.37787723E+02
  2.57122925E+01
%FLAG BONDS_INC_HYDROGEN
%FORMAT(10I8)
       0       9       2       0      12       2       0      15       2       3
      18       2       3      21       2       6      24       2       6      27
       2       6      30       2
%FLAG BONDS_WITHOUT_HYDROGEN
%FORMAT(10I8)
       0       3       1       3       6       1
%FLAG ANGLES_INC_HYDROGEN
%FORMAT(10I8)
       0       3      18       2       0       3      21       2       3       0
       9       2       3       0      12       2       3       0      15       2
       3       6      24       2       3       6      27       2       3       6
      30       2       6       3      18       2       6       3      21       2
       9       0      12       3       9       0      15       3      12       0
      15       3      18       3      21       3      24       6      27       3
      24       6      30       3      27       6      30       3
%FLAG ANGLES_WITHOUT_HYDROGEN
%FORMAT(10I8)
       0       3       6       1
%FLAG DIHEDRALS_INC_HYDROGEN
%FORMAT(10I8)
       0       3       6      24       1       0       3       6      27       1
       0       3       6      30       1       9       0       3       6       1
      12       0       3       6       1      15       0       3       6       1
       9       0       3      18       2       9       0       3      21       2
      12       0       3      18       2      12       0       3      21       2
      15       0       3      18       2      15       0       3      21       2
      18       3       6      24       2      18       3       6      27       2
      18       3       6      30       2      21       3       6      24       2
      21       3       6      27       2      21       3       6      30       2
%FLAG DIHEDRALS_WITHOUT_HYDROGEN
%FORMAT(10I8)

%FLAG EXCLUDED_ATOMS_LIST
%FORMAT(10I8)
       2       3       4       5       6       7       8       9      10      11
       3       4       5       6       7       8       9      10      11       4
       5       6       7       8       9      10      11       5       6       7
       8       6       7       8       7       8       8       9      10      11
       9      10      11      10      11      11       0
%FLAG HBOND_ACOEF
%FORMAT(5E16.8)

%FLAG HBOND_BCOEF
%FORMAT(5E16.8)

%FLAG HBCUT
%FORMAT(5E16.8)

%FLAG AMBER_ATOM_TYPE
%FORMAT(20a4)
c3  c3  c3  hc  hc  hc  hc  hc  hc  hc  hc  
%FLAG TREE_CHAIN_CLASSIFICATION
%FORMAT(20a4)
BLA BLA BLA BLA BLA BLA BLA BLA BLA BLA BLA 
%FLAG JOIN_ARRAY
%FORMAT(10I8)
       0       0       0       0       0       0       0       0       0       0
       0
%FLAG IROTAT
%FORMAT(10I8)
       0       0       0       0       0       0       0       0       0       0
       0
%FLAG RADIUS_SET
%FORMAT(1a80)
H(N)-modified Bondi radii (mbondi2)                                             
%FLAG RADII
%FORMAT(5E16.8)
  1.70000000E+00  1.70000000E+00  1.70000000E+00  1.20000000E+00  1.20000000E+00
  1.20000000E+00  1.20000000E+00  1.20000000E+00  1.20000000E+00  1.20000000E+00
  1.20000000E+00
%FLAG SCREEN
%FORMAT(5E16.8)
  7.20000000E-01  7.20000000E-01  7.20000000E-01  8.50000000E-01  8.50000000E-01
  8.50000000E-01  8.50000000E-01  8.50000000E-01  8.50000000E-01  8.50000000E-01
  8.50000000E-01
%FLAG IPOL
%FORMAT(1I8)
       0
