Glycine aRginine prOline Methionine Alanine Cystine Serine
   11
    1LIG      C    1   2.264   2.919   0.161
    1LIG     C1    2   2.263   2.980   0.022
    1LIG     C2    3   2.129   2.960  -0.047
    1LIG      H    4   2.359   2.934   0.206
    1LIG     H1    5   2.245   2.814   0.154
    1LIG     H2    6   2.188   2.965   0.221
    1LIG     H3    7   2.339   2.934  -0.037
    1LIG     H4    8   2.280   3.085   0.032
    1LIG     H5    9   2.109   2.856  -0.058
    1LIG     H6   10   2.131   3.006  -0.144
    1LIG     H7   11   2.051   3.005   0.012
   0.00000   0.00000   0.00000
