Cpptraj Generated Restart                                                       
   11  0.0000000E+00
  29.8500013  39.6700025  36.8800020  29.5800018  39.4900012  35.3700018
  28.2500005  38.7600017  35.0800014  30.8900023  40.0300026  36.9100022
  29.9000025  38.7300014  37.4400020  29.1900015  40.3999996  37.3500013
  30.4300022  38.9500022  34.9400020  29.5300007  40.4300022  34.8100019
  28.1200004  37.7900028  35.5700016  28.2300019  38.6600018  33.9900017
  27.3800015  39.3400025  35.4000020
