
   11  0.0000000e+00
  29.8500000  39.6700000  36.8800000  29.5800000  39.4900000  35.3700000
  28.2500000  38.7600000  35.0800000  30.8900000  40.0300000  36.9100000
  29.9000000  38.7300000  37.4400000  29.1900000  40.4000000  37.3500000
  30.4300000  38.9500000  34.9400000  29.5300000  40.4300000  34.8100000
  28.1200000  37.7900000  35.5700000  28.2300000  38.6600000  33.9900000
  27.3800000  39.3400000  35.4000000
