[ same_residue_as_(group_"Protein"_and_within_0.6_of_group_"Ligand")_f0_t0.000 ]
 534  535  536  537  538  539  540  541  542  543  544  545  546  547  548 
 773  774  775  776  777  778  779  780  781  782  783  784  832  833  834 
 835  836  837  838  839  840  841  842  843  844  845  846  847  848  849 
 850  851  852  853  854  855  856  857  858  859  860  861  862  863  864 
 865  866  867  868  869  870  871  872  873  874  875  876  877  878  879 
 880  881  882  883  884  885  886  887  888  889  890  891  892  893  894 
 895  896  897  898  899  900  936  937  938  939  940  941  942  943  944 
 945  946  947  948  949  950  951  952  953  954  955  956  957  958  959 
 960  961  962  963  964  965  966  967  968  969  970  971  972  973  974 
 975  976  977  978  979  980  981  982  983 1408 1409 1410 1411 1412 1413 
1414 1415 1416 1417 1462 1463 1464 1465 1466 1467 1468 1469 1470 1471 1472 
1473 1474 1475 1476 1477 1478 1479 1480 1541 1542 1543 1544 1545 1546 1547 
1548 1549 1550 1551 1552 1553 1554 1555 1556 1557 1558 1559 1560 1561 1562 
1563 1564 1565 1566 1567 1568 1569 1570 1571 1572 1573 1574 1575 1576 1577 
1578 1579 1580 1581 1582 1583 1584 1585 1586 1587 1588 1589 1590 1591 1592 
1593 1594 1595 1596 1597 1598 1599 1600 1601 1602 1603 1604 1605 1606 1607 
1608 1609 1610 1611 1612 1613 1614 1615 1616 1617 1618 1619 1620 1621 1622 
1623 1624 1625 1626 1627 1628 1663 1664 1665 1666 1667 1668 1669 1670 1671 
1672 1673 1674 1675 1676 1677 1678 1679 1680 1681 1682 1683 1684 1685 1686 
