[ System ]
   1    2    3    4    5    6    7    8    9   10   11   12   13   14   15
  16   17   18   19   20   21   22   23   24   25   26   27   28   29   30
  31   32   33   34   35   36   37   38   39   40   41   42   43   44   45
  46   47   48   49   50   51   52   53   54   55   56   57   58   59   60
  61   62   63   64   65   66   67   68   69   70   71   72   73   74   75
  76   77   78   79   80   81   82   83   84   85   86   87   88   89   90
  91   92   93   94   95   96   97   98   99  100  101  102  103  104  105
 106  107  108  109  110  111  112  113  114  115  116  117  118  119  120
 121  122  123  124  125  126  127  128  129  130  131  132  133  134  135
 136  137  138  139  140  141  142  143  144  145  146  147  148  149  150
 151  152  153  154  155  156  157  158  159  160  161  162  163  164  165
 166  167  168  169  170  171  172  173  174  175  176  177  178  179  180
 181  182  183  184  185  186  187  188  189  190  191  192  193  194  195
 196  197  198  199  200  201  202  203  204  205  206  207  208  209  210
 211  212  213  214  215  216  217  218  219  220  221  222  223  224  225
 226  227  228  229  230  231  232  233  234  235  236  237  238  239  240
 241  242  243  244  245  246  247  248  249  250  251  252  253  254  255
 256  257  258  259  260  261  262  263  264  265  266  267  268  269  270
 271  272  273  274  275  276  277  278  279  280  281  282  283  284  285
 286  287  288  289  290  291  292  293  294  295  296  297  298  299  300
 301  302  303  304  305  306  307  308  309  310  311  312  313  314  315
 316  317  318  319  320  321  322  323  324  325  326  327  328  329  330
 331  332  333  334  335  336  337  338  339  340  341  342  343  344  345
 346  347  348  349  350  351  352  353  354  355  356  357  358  359  360
 361  362  363  364  365  366  367  368  369  370  371  372  373  374  375
 376  377  378  379  380  381  382  383  384  385  386  387  388  389  390
 391  392  393  394  395  396  397  398  399  400  401  402  403  404  405
 406  407  408  409  410  411  412  413  414  415  416  417  418  419  420
 421  422  423  424  425  426  427  428  429  430  431  432  433  434  435
 436  437  438  439  440  441  442  443  444  445  446  447  448  449  450
 451  452  453  454  455  456  457  458  459  460  461  462  463  464  465
 466  467  468  469  470  471  472  473  474  475  476  477  478  479  480
 481  482  483  484  485  486  487  488  489  490  491  492  493  494  495
 496  497  498  499  500  501  502  503  504  505  506  507  508  509  510
 511  512  513  514  515  516  517  518  519  520  521  522  523  524  525
 526  527  528  529  530  531  532  533  534  535  536  537  538  539  540
 541  542  543  544  545  546  547  548  549  550  551  552  553  554  555
 556  557  558  559  560  561  562  563  564  565  566  567  568  569  570
 571  572  573  574  575  576  577  578  579  580  581  582  583  584  585
 586  587  588  589  590  591  592  593  594  595  596  597  598  599  600
 601  602  603  604  605  606  607  608  609  610  611  612  613  614  615
 616  617  618  619  620  621  622  623  624  625  626  627  628  629  630
 631  632  633  634  635  636  637  638  639  640  641  642  643  644  645
 646  647  648  649  650  651  652  653  654  655  656  657  658  659  660
 661  662  663  664  665  666  667  668  669  670  671  672  673  674  675
 676  677  678  679  680  681  682  683  684  685  686  687  688  689  690
 691  692  693  694  695  696  697  698  699  700  701  702  703  704  705
 706  707  708  709  710  711  712  713  714  715  716  717  718  719  720
 721  722  723  724  725  726  727  728  729  730  731  732  733  734  735
 736  737  738  739  740  741  742  743  744  745  746  747  748  749  750
 751  752  753  754  755  756  757  758  759  760  761  762  763  764  765
 766  767  768  769  770  771  772  773  774  775  776  777  778  779  780
 781  782  783  784  785  786  787  788  789  790  791  792  793  794  795
 796  797  798  799  800  801  802  803  804  805  806  807  808  809  810
 811  812  813  814  815  816  817  818  819  820  821  822  823  824  825
 826  827  828  829  830  831  832  833  834  835  836  837  838  839  840
 841  842  843  844  845  846  847  848  849  850  851  852  853  854  855
 856  857  858  859  860  861  862  863  864  865  866  867  868  869  870
 871  872  873  874  875  876  877  878  879  880  881  882  883  884  885
 886  887  888  889  890  891  892  893  894  895  896  897  898  899  900
 901  902  903  904  905  906  907  908  909  910  911  912  913  914  915
 916  917  918  919  920  921  922  923  924  925  926  927  928  929  930
 931  932  933  934  935  936  937  938  939  940  941  942  943  944  945
 946  947  948  949  950  951  952  953  954  955  956  957  958  959  960
 961  962  963  964  965  966  967  968  969  970  971  972  973  974  975
 976  977  978  979  980  981  982  983  984  985  986  987  988  989  990
 991  992  993  994  995  996  997  998  999 1000 1001 1002 1003 1004 1005
1006 1007 1008 1009 1010 1011 1012 1013 1014 1015 1016 1017 1018 1019 1020
1021 1022 1023 1024 1025 1026 1027 1028 1029 1030 1031 1032 1033 1034 1035
1036 1037 1038 1039 1040 1041 1042 1043 1044 1045 1046 1047 1048 1049 1050
1051 1052 1053 1054 1055 1056 1057 1058 1059 1060 1061 1062 1063 1064 1065
1066 1067 1068 1069 1070 1071 1072 1073 1074 1075 1076 1077 1078 1079 1080
1081 1082 1083 1084 1085 1086 1087 1088 1089 1090 1091 1092 1093 1094 1095
1096 1097 1098 1099 1100 1101 1102 1103 1104 1105 1106 1107 1108 1109 1110
1111 1112 1113 1114 1115 1116 1117 1118 1119 1120 1121 1122 1123 1124 1125
1126 1127 1128 1129 1130 1131 1132 1133 1134 1135 1136 1137 1138 1139 1140
1141 1142 1143 1144 1145 1146 1147 1148 1149 1150 1151 1152 1153 1154 1155
1156 1157 1158 1159 1160 1161 1162 1163 1164 1165 1166 1167 1168 1169 1170
1171 1172 1173 1174 1175 1176 1177 1178 1179 1180 1181 1182 1183 1184 1185
1186 1187 1188 1189 1190 1191 1192 1193 1194 1195 1196 1197 1198 1199 1200
1201 1202 1203 1204 1205 1206 1207 1208 1209 1210 1211 1212 1213 1214 1215
1216 1217 1218 1219 1220 1221 1222 1223 1224 1225 1226 1227 1228 1229 1230
1231 1232 1233 1234 1235 1236 1237 1238 1239 1240 1241 1242 1243 1244 1245
1246 1247 1248 1249 1250 1251 1252 1253 1254 1255 1256 1257 1258 1259 1260
1261 1262 1263 1264 1265 1266 1267 1268 1269 1270 1271 1272 1273 1274 1275
1276 1277 1278 1279 1280 1281 1282 1283 1284 1285 1286 1287 1288 1289 1290
1291 1292 1293 1294 1295 1296 1297 1298 1299 1300 1301 1302 1303 1304 1305
1306 1307 1308 1309 1310 1311 1312 1313 1314 1315 1316 1317 1318 1319 1320
1321 1322 1323 1324 1325 1326 1327 1328 1329 1330 1331 1332 1333 1334 1335
1336 1337 1338 1339 1340 1341 1342 1343 1344 1345 1346 1347 1348 1349 1350
1351 1352 1353 1354 1355 1356 1357 1358 1359 1360 1361 1362 1363 1364 1365
1366 1367 1368 1369 1370 1371 1372 1373 1374 1375 1376 1377 1378 1379 1380
1381 1382 1383 1384 1385 1386 1387 1388 1389 1390 1391 1392 1393 1394 1395
1396 1397 1398 1399 1400 1401 1402 1403 1404 1405 1406 1407 1408 1409 1410
1411 1412 1413 1414 1415 1416 1417 1418 1419 1420 1421 1422 1423 1424 1425
1426 1427 1428 1429 1430 1431 1432 1433 1434 1435 1436 1437 1438 1439 1440
1441 1442 1443 1444 1445 1446 1447 1448 1449 1450 1451 1452 1453 1454 1455
1456 1457 1458 1459 1460 1461 1462 1463 1464 1465 1466 1467 1468 1469 1470
1471 1472 1473 1474 1475 1476 1477 1478 1479 1480 1481 1482 1483 1484 1485
1486 1487 1488 1489 1490 1491 1492 1493 1494 1495 1496 1497 1498 1499 1500
1501 1502 1503 1504 1505 1506 1507 1508 1509 1510 1511 1512 1513 1514 1515
1516 1517 1518 1519 1520 1521 1522 1523 1524 1525 1526 1527 1528 1529 1530
1531 1532 1533 1534 1535 1536 1537 1538 1539 1540 1541 1542 1543 1544 1545
1546 1547 1548 1549 1550 1551 1552 1553 1554 1555 1556 1557 1558 1559 1560
1561 1562 1563 1564 1565 1566 1567 1568 1569 1570 1571 1572 1573 1574 1575
1576 1577 1578 1579 1580 1581 1582 1583 1584 1585 1586 1587 1588 1589 1590
1591 1592 1593 1594 1595 1596 1597 1598 1599 1600 1601 1602 1603 1604 1605
1606 1607 1608 1609 1610 1611 1612 1613 1614 1615 1616 1617 1618 1619 1620
1621 1622 1623 1624 1625 1626 1627 1628 1629 1630 1631 1632 1633 1634 1635
1636 1637 1638 1639 1640 1641 1642 1643 1644 1645 1646 1647 1648 1649 1650
1651 1652 1653 1654 1655 1656 1657 1658 1659 1660 1661 1662 1663 1664 1665
1666 1667 1668 1669 1670 1671 1672 1673 1674 1675 1676 1677 1678 1679 1680
1681 1682 1683 1684 1685 1686 1687 1688 1689 1690 1691 1692 1693 1694 1695
1696 1697 1698 1699 1700 1701 1702 1703 1704 1705 1706 1707 1708 1709 1710
1711 1712 1713 1714 1715 1716 1717 1718 1719 1720 1721 1722 1723 1724 1725
1726 1727 1728 1729 1730 1731 1732 1733 1734 1735 1736 1737 1738 1739 1740
1741 1742 1743 1744 1745 1746 1747 1748 1749 1750 1751 1752 1753 1754 1755
1756 1757 1758 1759 1760 1761 1762 1763 1764 1765 1766 1767 1768 1769 1770
1771 1772 1773 1774 1775 1776 1777 1778 1779 1780 1781 1782 1783 1784 1785
1786 1787 1788 1789 1790 1791 1792 1793 1794 1795 1796 1797 1798 1799 1800
1801 1802 1803 1804 1805 1806 1807 1808 1809 1810 1811 1812 1813 1814 1815
1816 1817 1818 1819 1820 1821 1822 1823 1824 1825 1826 1827 1828 1829 1830
1831 1832 1833 1834 1835 1836 1837 1838 1839 1840 1841 1842 1843 1844 1845
1846 1847 1848 1849 1850 1851 1852 1853 1854 1855 1856 1857 1858 1859 1860
1861 1862 1863 1864 1865 1866 1867 1868 1869 1870 1871 1872 1873 1874 1875
1876 1877 1878 1879 1880 1881 1882 1883 1884 1885 1886 1887 1888 1889 1890
1891 1892 1893 1894 1895 1896 1897 1898 1899 1900 1901 1902 1903 1904 1905
1906 1907 1908 1909 1910 1911 1912 1913 1914 1915 1916 1917 1918 1919 1920
1921 1922 1923 1924 1925 1926 1927 1928 1929 1930 1931 1932 1933 1934 1935
1936 1937 1938 1939 1940 1941 1942 1943 1944 1945 1946 1947 1948 1949 1950
1951 1952 1953 1954 1955 1956 1957 1958 1959 1960 1961 1962 1963 1964 1965
1966 1967 1968 1969 1970 1971
[ Protein ]
   1    2    3    4    5    6    7    8    9   10   11   12   13   14   15
  16   17   18   19   20   21   22   23   24   25   26   27   28   29   30
  31   32   33   34   35   36   37   38   39   40   41   42   43   44   45
  46   47   48   49   50   51   52   53   54   55   56   57   58   59   60
  61   62   63   64   65   66   67   68   69   70   71   72   73   74   75
  76   77   78   79   80   81   82   83   84   85   86   87   88   89   90
  91   92   93   94   95   96   97   98   99  100  101  102  103  104  105
 106  107  108  109  110  111  112  113  114  115  116  117  118  119  120
 121  122  123  124  125  126  127  128  129  130  131  132  133  134  135
 136  137  138  139  140  141  142  143  144  145  146  147  148  149  150
 151  152  153  154  155  156  157  158  159  160  161  162  163  164  165
 166  167  168  169  170  171  172  173  174  175  176  177  178  179  180
 181  182  183  184  185  186  187  188  189  190  191  192  193  194  195
 196  197  198  199  200  201  202  203  204  205  206  207  208  209  210
 211  212  213  214  215  216  217  218  219  220  221  222  223  224  225
 226  227  228  229  230  231  232  233  234  235  236  237  238  239  240
 241  242  243  244  245  246  247  248  249  250  251  252  253  254  255
 256  257  258  259  260  261  262  263  264  265  266  267  268  269  270
 271  272  273  274  275  276  277  278  279  280  281  282  283  284  285
 286  287  288  289  290  291  292  293  294  295  296  297  298  299  300
 301  302  303  304  305  306  307  308  309  310  311  312  313  314  315
 316  317  318  319  320  321  322  323  324  325  326  327  328  329  330
 331  332  333  334  335  336  337  338  339  340  341  342  343  344  345
 346  347  348  349  350  351  352  353  354  355  356  357  358  359  360
 361  362  363  364  365  366  367  368  369  370  371  372  373  374  375
 376  377  378  379  380  381  382  383  384  385  386  387  388  389  390
 391  392  393  394  395  396  397  398  399  400  401  402  403  404  405
 406  407  408  409  410  411  412  413  414  415  416  417  418  419  420
 421  422  423  424  425  426  427  428  429  430  431  432  433  434  435
 436  437  438  439  440  441  442  443  444  445  446  447  448  449  450
 451  452  453  454  455  456  457  458  459  460  461  462  463  464  465
 466  467  468  469  470  471  472  473  474  475  476  477  478  479  480
 481  482  483  484  485  486  487  488  489  490  491  492  493  494  495
 496  497  498  499  500  501  502  503  504  505  506  507  508  509  510
 511  512  513  514  515  516  517  518  519  520  521  522  523  524  525
 526  527  528  529  530  531  532  533  534  535  536  537  538  539  540
 541  542  543  544  545  546  547  548  549  550  551  552  553  554  555
 556  557  558  559  560  561  562  563  564  565  566  567  568  569  570
 571  572  573  574  575  576  577  578  579  580  581  582  583  584  585
 586  587  588  589  590  591  592  593  594  595  596  597  598  599  600
 601  602  603  604  605  606  607  608  609  610  611  612  613  614  615
 616  617  618  619  620  621  622  623  624  625  626  627  628  629  630
 631  632  633  634  635  636  637  638  639  640  641  642  643  644  645
 646  647  648  649  650  651  652  653  654  655  656  657  658  659  660
 661  662  663  664  665  666  667  668  669  670  671  672  673  674  675
 676  677  678  679  680  681  682  683  684  685  686  687  688  689  690
 691  692  693  694  695  696  697  698  699  700  701  702  703  704  705
 706  707  708  709  710  711  712  713  714  715  716  717  718  719  720
 721  722  723  724  725  726  727  728  729  730  731  732  733  734  735
 736  737  738  739  740  741  742  743  744  745  746  747  748  749  750
 751  752  753  754  755  756  757  758  759  760  761  762  763  764  765
 766  767  768  769  770  771  772  773  774  775  776  777  778  779  780
 781  782  783  784  785  786  787  788  789  790  791  792  793  794  795
 796  797  798  799  800  801  802  803  804  805  806  807  808  809  810
 811  812  813  814  815  816  817  818  819  820  821  822  823  824  825
 826  827  828  829  830  831  832  833  834  835  836  837  838  839  840
 841  842  843  844  845  846  847  848  849  850  851  852  853  854  855
 856  857  858  859  860  861  862  863  864  865  866  867  868  869  870
 871  872  873  874  875  876  877  878  879  880  881  882  883  884  885
 886  887  888  889  890  891  892  893  894  895  896  897  898  899  900
 901  902  903  904  905  906  907  908  909  910  911  912  913  914  915
 916  917  918  919  920  921  922  923  924  925  926  927  928  929  930
 931  932  933  934  935  936  937  938  939  940  941  942  943  944  945
 946  947  948  949  950  951  952  953  954  955  956  957  958  959  960
 961  962  963  964  965  966  967  968  969  970  971  972  973  974  975
 976  977  978  979  980  981  982  983  984  985  986  987  988  989  990
 991  992  993  994  995  996  997  998  999 1000 1001 1002 1003 1004 1005
1006 1007 1008 1009 1010 1011 1012 1013 1014 1015 1016 1017 1018 1019 1020
1021 1022 1023 1024 1025 1026 1027 1028 1029 1030 1031 1032 1033 1034 1035
1036 1037 1038 1039 1040 1041 1042 1043 1044 1045 1046 1047 1048 1049 1050
1051 1052 1053 1054 1055 1056 1057 1058 1059 1060 1061 1062 1063 1064 1065
1066 1067 1068 1069 1070 1071 1072 1073 1074 1075 1076 1077 1078 1079 1080
1081 1082 1083 1084 1085 1086 1087 1088 1089 1090 1091 1092 1093 1094 1095
1096 1097 1098 1099 1100 1101 1102 1103 1104 1105 1106 1107 1108 1109 1110
1111 1112 1113 1114 1115 1116 1117 1118 1119 1120 1121 1122 1123 1124 1125
1126 1127 1128 1129 1130 1131 1132 1133 1134 1135 1136 1137 1138 1139 1140
1141 1142 1143 1144 1145 1146 1147 1148 1149 1150 1151 1152 1153 1154 1155
1156 1157 1158 1159 1160 1161 1162 1163 1164 1165 1166 1167 1168 1169 1170
1171 1172 1173 1174 1175 1176 1177 1178 1179 1180 1181 1182 1183 1184 1185
1186 1187 1188 1189 1190 1191 1192 1193 1194 1195 1196 1197 1198 1199 1200
1201 1202 1203 1204 1205 1206 1207 1208 1209 1210 1211 1212 1213 1214 1215
1216 1217 1218 1219 1220 1221 1222 1223 1224 1225 1226 1227 1228 1229 1230
1231 1232 1233 1234 1235 1236 1237 1238 1239 1240 1241 1242 1243 1244 1245
1246 1247 1248 1249 1250 1251 1252 1253 1254 1255 1256 1257 1258 1259 1260
1261 1262 1263 1264 1265 1266 1267 1268 1269 1270 1271 1272 1273 1274 1275
1276 1277 1278 1279 1280 1281 1282 1283 1284 1285 1286 1287 1288 1289 1290
1291 1292 1293 1294 1295 1296 1297 1298 1299 1300 1301 1302 1303 1304 1305
1306 1307 1308 1309 1310 1311 1312 1313 1314 1315 1316 1317 1318 1319 1320
1321 1322 1323 1324 1325 1326 1327 1328 1329 1330 1331 1332 1333 1334 1335
1336 1337 1338 1339 1340 1341 1342 1343 1344 1345 1346 1347 1348 1349 1350
1351 1352 1353 1354 1355 1356 1357 1358 1359 1360 1361 1362 1363 1364 1365
1366 1367 1368 1369 1370 1371 1372 1373 1374 1375 1376 1377 1378 1379 1380
1381 1382 1383 1384 1385 1386 1387 1388 1389 1390 1391 1392 1393 1394 1395
1396 1397 1398 1399 1400 1401 1402 1403 1404 1405 1406 1407 1408 1409 1410
1411 1412 1413 1414 1415 1416 1417 1418 1419 1420 1421 1422 1423 1424 1425
1426 1427 1428 1429 1430 1431 1432 1433 1434 1435 1436 1437 1438 1439 1440
1441 1442 1443 1444 1445 1446 1447 1448 1449 1450 1451 1452 1453 1454 1455
1456 1457 1458 1459 1460 1461 1462 1463 1464 1465 1466 1467 1468 1469 1470
1471 1472 1473 1474 1475 1476 1477 1478 1479 1480 1481 1482 1483 1484 1485
1486 1487 1488 1489 1490 1491 1492 1493 1494 1495 1496 1497 1498 1499 1500
1501 1502 1503 1504 1505 1506 1507 1508 1509 1510 1511 1512 1513 1514 1515
1516 1517 1518 1519 1520 1521 1522 1523 1524 1525 1526 1527 1528 1529 1530
1531 1532 1533 1534 1535 1536 1537 1538 1539 1540 1541 1542 1543 1544 1545
1546 1547 1548 1549 1550 1551 1552 1553 1554 1555 1556 1557 1558 1559 1560
1561 1562 1563 1564 1565 1566 1567 1568 1569 1570 1571 1572 1573 1574 1575
1576 1577 1578 1579 1580 1581 1582 1583 1584 1585 1586 1587 1588 1589 1590
1591 1592 1593 1594 1595 1596 1597 1598 1599 1600 1601 1602 1603 1604 1605
1606 1607 1608 1609 1610 1611 1612 1613 1614 1615 1616 1617 1618 1619 1620
1621 1622 1623 1624 1625 1626 1627 1628 1629 1630 1631 1632 1633 1634 1635
1636 1637 1638 1639 1640 1641 1642 1643 1644 1645 1646 1647 1648 1649 1650
1651 1652 1653 1654 1655 1656 1657 1658 1659 1660 1661 1662 1663 1664 1665
1666 1667 1668 1669 1670 1671 1672 1673 1674 1675 1676 1677 1678 1679 1680
1681 1682 1683 1684 1685 1686 1687 1688 1689 1690 1691 1692 1693 1694 1695
1696 1697 1698 1699 1700 1701 1702 1703 1704 1705 1706 1707 1708 1709 1710
1711 1712 1713 1714 1715 1716 1717 1718 1719 1720 1721 1722 1723 1724 1725
1726 1727 1728 1729 1730 1731 1732 1733 1734 1735 1736 1737 1738 1739 1740
1741 1742 1743 1744 1745 1746 1747 1748 1749 1750 1751 1752 1753 1754 1755
1756 1757 1758 1759 1760 1761 1762 1763 1764 1765 1766 1767 1768 1769 1770
1771 1772 1773 1774 1775 1776 1777 1778 1779 1780 1781 1782 1783 1784 1785
1786 1787 1788 1789 1790 1791 1792 1793 1794 1795 1796 1797 1798 1799 1800
1801 1802 1803 1804 1805 1806 1807 1808 1809 1810 1811 1812 1813 1814 1815
1816 1817 1818 1819 1820 1821 1822 1823 1824 1825 1826 1827 1828 1829 1830
1831 1832 1833 1834 1835 1836 1837 1838 1839 1840 1841 1842 1843 1844 1845
1846 1847 1848 1849 1850 1851 1852 1853 1854 1855 1856 1857 1858 1859 1860
1861 1862 1863 1864 1865 1866 1867 1868 1869 1870 1871 1872 1873 1874 1875
1876 1877 1878 1879 1880 1881 1882 1883 1884 1885 1886 1887 1888 1889 1890
1891 1892 1893 1894 1895 1896 1897 1898 1899 1900 1901 1902 1903 1904 1905
1906 1907 1908 1909 1910 1911 1912 1913 1914 1915 1916 1917 1918 1919 1920
1921 1922 1923 1924 1925 1926 1927 1928 1929 1930 1931 1932 1933 1934 1935
1936 1937 1938 1939 1940 1941 1942 1943 1944 1945 1946 1947 1948 1949 1950
1951 1952 1953 1954 1955 1956 1957 1958 1959 1960
[ Protein-H ]
   1    5    7   10   13   16   19   23   24   25   27   29   31   35   39
  40   41   43   45   48   49   51   53   55   57   59   60   61   63   66
  67   68   70   72   75   78   81   83   84   87   90   91   92   94   96
  99  100  101  102  104  106  109  112  113  114  115  116  117  119  121
 124  126  130  134  135  136  138  140  144  145  146  148  150  154  155
 156  158  160  164  165  166  168  170  173  176  177  181  182  183  185
 187  190  193  196  199  203  204  205  207  209  212  215  218  220  221
 224  227  228  229  231  233  236  237  238  240  242  244  245  246  248
 251  252  253  255  257  260  262  266  270  271  272  274  276  279  280
 281  282  283  284  286  288  291  292  293  296  297  298  300  302  305
 306  308  310  311  313  315  317  318  319  321  323  326  329  332  334
 335  338  341  342  343  345  348  349  350  352  354  357  358  360  362
 363  365  367  369  370  371  373  375  378  380  381  382  384  386  389
 391  395  399  400  401  403  406  407  408  410  412  415  416  417  420
 421  422  424  426  429  430  432  434  435  437  439  441  443  444  445
 446  448  450  452  456  460  461  462  464  466  469  470  471  472  474
 476  480  481  482  484  486  490  491  492  494  496  499  502  505  508
 512  513  514  516  518  521  522  524  526  528  530  532  533  534  536
 538  541  544  545  546  547  548  549  551  553  556  558  559  560  562
 564  567  568  569  572  573  574  576  578  581  582  584  586  588  590
 592  593  594  596  598  601  602  603  606  607  608  610  612  614  618
 620  621  622  624  626  629  632  633  634  637  638  639  641  643  647
 648  649  651  653  655  659  661  662  663  665  667  670  671  672  675
 676  677  679  681  684  687  690  692  693  696  699  700  701  703  705
 708  709  710  713  714  715  717  719  721  725  727  728  729  731  733
 736  737  738  739  740  741  743  746  747  748  750  752  755  757  758
 759  761  763  765  769  771  772  773  775  777  780  781  782  783  784
 785  787  789  792  793  795  797  798  800  802  804  805  806  808  811
 812  813  815  817  819  823  826  830  831  832  834  836  839  841  845
 849  850  851  853  855  858  861  862  863  866  867  868  870  872  874
 878  881  885  886  887  889  891  894  895  896  899  900  901  903  905
 908  910  911  912  914  916  919  922  925  927  928  931  934  935  936
 938  940  943  944  946  948  949  951  953  955  957  958  959  960  962
 964  967  968  970  972  973  975  977  979  981  982  983  984  986  988
 991  992  993  994  996  998 1001 1002 1003 1006 1007 1008 1010 1012 1015
1016 1017 1018 1019 1020 1022 1025 1026 1027 1029 1031 1034 1037 1040 1042
1043 1046 1049 1050 1051 1053 1055 1057 1061 1063 1064 1065 1066 1069 1072
1075 1077 1078 1079 1081 1084 1085 1086 1088 1090 1093 1095 1096 1097 1099
1101 1104 1107 1110 1112 1113 1116 1119 1120 1121 1123 1125 1128 1129 1130
1133 1134 1135 1137 1139 1142 1144 1148 1152 1153 1154 1156 1158 1161 1162
1163 1164 1166 1168 1171 1172 1173 1176 1177 1178 1180 1182 1184 1188 1191
1195 1196 1197 1198 1201 1204 1207 1209 1210 1211 1213 1215 1218 1219 1220
1221 1223 1225 1228 1230 1231 1232 1234 1236 1240 1241 1242 1244 1246 1249
1251 1255 1259 1260 1261 1263 1265 1268 1270 1274 1278 1279 1280 1282 1284
1287 1289 1290 1291 1293 1295 1298 1300 1301 1302 1304 1306 1309 1310 1311
1312 1313 1314 1316 1318 1320 1324 1327 1331 1332 1333 1335 1337 1339 1343
1345 1346 1347 1349 1351 1355 1356 1357 1359 1361 1364 1366 1367 1368 1370
1372 1374 1378 1382 1383 1384 1386 1388 1391 1392 1393 1396 1397 1398 1400
1402 1405 1406 1407 1408 1410 1412 1416 1417 1418 1420 1422 1425 1428 1431
1434 1438 1439 1440 1442 1444 1447 1450 1453 1456 1460 1461 1462 1464 1466
1468 1472 1475 1479 1480 1481 1483 1485 1487 1491 1495 1496 1497 1499 1501
1504 1506 1507 1508 1510 1512 1515 1516 1517 1518 1519 1520 1522 1525 1526
1527 1529 1531 1534 1535 1536 1539 1540 1541 1543 1546 1547 1548 1550 1552
1555 1558 1559 1563 1564 1565 1567 1569 1572 1573 1574 1577 1578 1579 1581
1583 1587 1588 1589 1591 1593 1596 1597 1599 1601 1602 1604 1606 1608 1610
1611 1612 1613 1615 1617 1619 1623 1627 1628 1629 1631 1633 1637 1638 1639
1641 1643 1646 1647 1649 1651 1652 1654 1656 1658 1660 1661 1662 1663 1665
1667 1670 1673 1676 1678 1679 1682 1685 1686 1687 1689 1691 1694 1695 1696
1699 1700 1701 1703 1705 1708 1711 1714 1716 1717 1720 1723 1724 1725 1727
1729 1732 1733 1734 1735 1737 1739 1742 1745 1748 1751 1755 1756 1757 1759
1762 1763 1764 1766 1768 1770 1774 1776 1777 1778 1780 1782 1785 1786 1787
1788 1789 1790 1792 1794 1796 1800 1804 1805 1806 1808 1810 1813 1816 1817
1818 1821 1822 1823 1825 1827 1831 1832 1833 1835 1837 1840 1841 1843 1845
1846 1848 1850 1852 1854 1855 1856 1857 1859 1861 1863 1867 1870 1874 1875
1876 1878 1880 1883 1886 1889 1891 1892 1895 1898 1899 1900 1902 1905 1906
1907 1909 1911 1914 1915 1916 1917 1919 1921 1924 1927 1930 1932 1933 1936
1939 1940 1941 1943 1945 1948 1950 1954 1958 1959 1960
[ C-alpha ]
   5   27   43   63   70   94  104  119  138  148  158  168  185  207  231
 248  255  274  286  300  321  345  352  373  384  403  410  424  448  464
 474  484  494  516  536  551  562  576  596  610  624  641  651  665  679
 703  717  731  743  750  761  775  787  808  815  834  853  870  889  903
 914  938  962  986  996 1010 1022 1029 1053 1075 1081 1088 1099 1123 1137
1156 1166 1180 1207 1213 1223 1234 1244 1263 1282 1293 1304 1316 1335 1349
1359 1370 1386 1400 1410 1420 1442 1464 1483 1499 1510 1522 1529 1543 1550
1567 1581 1591 1615 1631 1641 1665 1689 1703 1727 1737 1759 1766 1780 1792
1808 1825 1835 1859 1878 1902 1909 1919 1943
[ Backbone ]
   1    5   23   25   27   39   41   43   59   61   63   66   68   70   90
  92   94  100  102  104  115  117  119  134  136  138  144  146  148  154
 156  158  164  166  168  181  183  185  203  205  207  227  229  231  244
 246  248  251  253  255  270  272  274  282  284  286  296  298  300  317
 319  321  341  343  345  348  350  352  369  371  373  380  382  384  399
 401  403  406  408  410  420  422  424  444  446  448  460  462  464  470
 472  474  480  482  484  490  492  494  512  514  516  532  534  536  547
 549  551  558  560  562  572  574  576  592  594  596  606  608  610  620
 622  624  637  639  641  647  649  651  661  663  665  675  677  679  699
 701  703  713  715  717  727  729  731  739  741  743  746  748  750  757
 759  761  771  773  775  783  785  787  804  806  808  811  813  815  830
 832  834  849  851  853  866  868  870  885  887  889  899  901  903  910
 912  914  934  936  938  958  960  962  982  984  986  992  994  996 1006
1008 1010 1018 1020 1022 1025 1027 1029 1049 1051 1053 1063 1065 1075 1077
1079 1081 1084 1086 1088 1095 1097 1099 1119 1121 1123 1133 1135 1137 1152
1154 1156 1162 1164 1166 1176 1178 1180 1195 1197 1207 1209 1211 1213 1219
1221 1223 1230 1232 1234 1240 1242 1244 1259 1261 1263 1278 1280 1282 1289
1291 1293 1300 1302 1304 1312 1314 1316 1331 1333 1335 1345 1347 1349 1355
1357 1359 1366 1368 1370 1382 1384 1386 1396 1398 1400 1406 1408 1410 1416
1418 1420 1438 1440 1442 1460 1462 1464 1479 1481 1483 1495 1497 1499 1506
1508 1510 1518 1520 1522 1525 1527 1529 1539 1541 1543 1546 1548 1550 1563
1565 1567 1577 1579 1581 1587 1589 1591 1611 1613 1615 1627 1629 1631 1637
1639 1641 1661 1663 1665 1685 1687 1689 1699 1701 1703 1723 1725 1727 1733
1735 1737 1755 1757 1759 1762 1764 1766 1776 1778 1780 1788 1790 1792 1804
1806 1808 1821 1823 1825 1831 1833 1835 1855 1857 1859 1874 1876 1878 1898
1900 1902 1905 1907 1909 1915 1917 1919 1939 1941 1943 1958
[ MainChain ]
   1    5   23   24   25   27   39   40   41   43   59   60   61   63   66
  67   68   70   90   91   92   94  100  101  102  104  115  116  117  119
 134  135  136  138  144  145  146  148  154  155  156  158  164  165  166
 168  181  182  183  185  203  204  205  207  227  228  229  231  244  245
 246  248  251  252  253  255  270  271  272  274  282  283  284  286  296
 297  298  300  317  318  319  321  341  342  343  345  348  349  350  352
 369  370  371  373  380  381  382  384  399  400  401  403  406  407  408
 410  420  421  422  424  444  445  446  448  460  461  462  464  470  471
 472  474  480  481  482  484  490  491  492  494  512  513  514  516  532
 533  534  536  547  548  549  551  558  559  560  562  572  573  574  576
 592  593  594  596  606  607  608  610  620  621  622  624  637  638  639
 641  647  648  649  651  661  662  663  665  675  676  677  679  699  700
 701  703  713  714  715  717  727  728  729  731  739  740  741  743  746
 747  748  750  757  758  759  761  771  772  773  775  783  784  785  787
 804  805  806  808  811  812  813  815  830  831  832  834  849  850  851
 853  866  867  868  870  885  886  887  889  899  900  901  903  910  911
 912  914  934  935  936  938  958  959  960  962  982  983  984  986  992
 993  994  996 1006 1007 1008 1010 1018 1019 1020 1022 1025 1026 1027 1029
1049 1050 1051 1053 1063 1064 1065 1075 1077 1078 1079 1081 1084 1085 1086
1088 1095 1096 1097 1099 1119 1120 1121 1123 1133 1134 1135 1137 1152 1153
1154 1156 1162 1163 1164 1166 1176 1177 1178 1180 1195 1196 1197 1207 1209
1210 1211 1213 1219 1220 1221 1223 1230 1231 1232 1234 1240 1241 1242 1244
1259 1260 1261 1263 1278 1279 1280 1282 1289 1290 1291 1293 1300 1301 1302
1304 1312 1313 1314 1316 1331 1332 1333 1335 1345 1346 1347 1349 1355 1356
1357 1359 1366 1367 1368 1370 1382 1383 1384 1386 1396 1397 1398 1400 1406
1407 1408 1410 1416 1417 1418 1420 1438 1439 1440 1442 1460 1461 1462 1464
1479 1480 1481 1483 1495 1496 1497 1499 1506 1507 1508 1510 1518 1519 1520
1522 1525 1526 1527 1529 1539 1540 1541 1543 1546 1547 1548 1550 1563 1564
1565 1567 1577 1578 1579 1581 1587 1588 1589 1591 1611 1612 1613 1615 1627
1628 1629 1631 1637 1638 1639 1641 1661 1662 1663 1665 1685 1686 1687 1689
1699 1700 1701 1703 1723 1724 1725 1727 1733 1734 1735 1737 1755 1756 1757
1759 1762 1763 1764 1766 1776 1777 1778 1780 1788 1789 1790 1792 1804 1805
1806 1808 1821 1822 1823 1825 1831 1832 1833 1835 1855 1856 1857 1859 1874
1875 1876 1878 1898 1899 1900 1902 1905 1906 1907 1909 1915 1916 1917 1919
1939 1940 1941 1943 1958 1959 1960
[ MainChain+Cb ]
   1    5    7   23   24   25   27   29   39   40   41   43   45   59   60
  61   63   66   67   68   70   72   90   91   92   94   96  100  101  102
 104  106  115  116  117  119  121  134  135  136  138  140  144  145  146
 148  150  154  155  156  158  160  164  165  166  168  170  181  182  183
 185  187  203  204  205  207  209  227  228  229  231  233  244  245  246
 248  251  252  253  255  257  270  271  272  274  276  282  283  284  286
 288  296  297  298  300  302  317  318  319  321  323  341  342  343  345
 348  349  350  352  354  369  370  371  373  375  380  381  382  384  386
 399  400  401  403  406  407  408  410  412  420  421  422  424  426  444
 445  446  448  450  460  461  462  464  466  470  471  472  474  476  480
 481  482  484  486  490  491  492  494  496  512  513  514  516  518  532
 533  534  536  538  547  548  549  551  553  558  559  560  562  564  572
 573  574  576  578  592  593  594  596  598  606  607  608  610  612  620
 621  622  624  626  637  638  639  641  643  647  648  649  651  653  661
 662  663  665  667  675  676  677  679  681  699  700  701  703  705  713
 714  715  717  719  727  728  729  731  733  739  740  741  743  746  747
 748  750  752  757  758  759  761  763  771  772  773  775  777  783  784
 785  787  789  804  805  806  808  811  812  813  815  817  830  831  832
 834  836  849  850  851  853  855  866  867  868  870  872  885  886  887
 889  891  899  900  901  903  905  910  911  912  914  916  934  935  936
 938  940  958  959  960  962  964  982  983  984  986  988  992  993  994
 996  998 1006 1007 1008 1010 1012 1018 1019 1020 1022 1025 1026 1027 1029
1031 1049 1050 1051 1053 1055 1063 1064 1065 1072 1075 1077 1078 1079 1081
1084 1085 1086 1088 1090 1095 1096 1097 1099 1101 1119 1120 1121 1123 1125
1133 1134 1135 1137 1139 1152 1153 1154 1156 1158 1162 1163 1164 1166 1168
1176 1177 1178 1180 1182 1195 1196 1197 1204 1207 1209 1210 1211 1213 1215
1219 1220 1221 1223 1225 1230 1231 1232 1234 1236 1240 1241 1242 1244 1246
1259 1260 1261 1263 1265 1278 1279 1280 1282 1284 1289 1290 1291 1293 1295
1300 1301 1302 1304 1306 1312 1313 1314 1316 1318 1331 1332 1333 1335 1337
1345 1346 1347 1349 1351 1355 1356 1357 1359 1361 1366 1367 1368 1370 1372
1382 1383 1384 1386 1388 1396 1397 1398 1400 1402 1406 1407 1408 1410 1412
1416 1417 1418 1420 1422 1438 1439 1440 1442 1444 1460 1461 1462 1464 1466
1479 1480 1481 1483 1485 1495 1496 1497 1499 1501 1506 1507 1508 1510 1512
1518 1519 1520 1522 1525 1526 1527 1529 1531 1539 1540 1541 1543 1546 1547
1548 1550 1552 1563 1564 1565 1567 1569 1577 1578 1579 1581 1583 1587 1588
1589 1591 1593 1611 1612 1613 1615 1617 1627 1628 1629 1631 1633 1637 1638
1639 1641 1643 1661 1662 1663 1665 1667 1685 1686 1687 1689 1691 1699 1700
1701 1703 1705 1723 1724 1725 1727 1729 1733 1734 1735 1737 1739 1755 1756
1757 1759 1762 1763 1764 1766 1768 1776 1777 1778 1780 1782 1788 1789 1790
1792 1794 1804 1805 1806 1808 1810 1821 1822 1823 1825 1827 1831 1832 1833
1835 1837 1855 1856 1857 1859 1861 1874 1875 1876 1878 1880 1898 1899 1900
1902 1905 1906 1907 1909 1911 1915 1916 1917 1919 1921 1939 1940 1941 1943
1945 1958 1959 1960
[ MainChain+H ]
   1    2    3    4    5   23   24   25   26   27   39   40   41   42   43
  59   60   61   62   63   66   67   68   69   70   90   91   92   93   94
 100  101  102  103  104  115  116  117  118  119  134  135  136  137  138
 144  145  146  147  148  154  155  156  157  158  164  165  166  167  168
 181  182  183  184  185  203  204  205  206  207  227  228  229  230  231
 244  245  246  247  248  251  252  253  254  255  270  271  272  273  274
 282  283  284  285  286  296  297  298  299  300  317  318  319  320  321
 341  342  343  344  345  348  349  350  351  352  369  370  371  372  373
 380  381  382  383  384  399  400  401  402  403  406  407  408  409  410
 420  421  422  423  424  444  445  446  447  448  460  461  462  463  464
 470  471  472  473  474  480  481  482  483  484  490  491  492  493  494
 512  513  514  515  516  532  533  534  535  536  547  548  549  550  551
 558  559  560  561  562  572  573  574  575  576  592  593  594  595  596
 606  607  608  609  610  620  621  622  623  624  637  638  639  640  641
 647  648  649  650  651  661  662  663  664  665  675  676  677  678  679
 699  700  701  702  703  713  714  715  716  717  727  728  729  730  731
 739  740  741  742  743  746  747  748  749  750  757  758  759  760  761
 771  772  773  774  775  783  784  785  786  787  804  805  806  807  808
 811  812  813  814  815  830  831  832  833  834  849  850  851  852  853
 866  867  868  869  870  885  886  887  888  889  899  900  901  902  903
 910  911  912  913  914  934  935  936  937  938  958  959  960  961  962
 982  983  984  985  986  992  993  994  995  996 1006 1007 1008 1009 1010
1018 1019 1020 1021 1022 1025 1026 1027 1028 1029 1049 1050 1051 1052 1053
1063 1064 1065 1075 1077 1078 1079 1080 1081 1084 1085 1086 1087 1088 1095
1096 1097 1098 1099 1119 1120 1121 1122 1123 1133 1134 1135 1136 1137 1152
1153 1154 1155 1156 1162 1163 1164 1165 1166 1176 1177 1178 1179 1180 1195
1196 1197 1207 1209 1210 1211 1212 1213 1219 1220 1221 1222 1223 1230 1231
1232 1233 1234 1240 1241 1242 1243 1244 1259 1260 1261 1262 1263 1278 1279
1280 1281 1282 1289 1290 1291 1292 1293 1300 1301 1302 1303 1304 1312 1313
1314 1315 1316 1331 1332 1333 1334 1335 1345 1346 1347 1348 1349 1355 1356
1357 1358 1359 1366 1367 1368 1369 1370 1382 1383 1384 1385 1386 1396 1397
1398 1399 1400 1406 1407 1408 1409 1410 1416 1417 1418 1419 1420 1438 1439
1440 1441 1442 1460 1461 1462 1463 1464 1479 1480 1481 1482 1483 1495 1496
1497 1498 1499 1506 1507 1508 1509 1510 1518 1519 1520 1521 1522 1525 1526
1527 1528 1529 1539 1540 1541 1542 1543 1546 1547 1548 1549 1550 1563 1564
1565 1566 1567 1577 1578 1579 1580 1581 1587 1588 1589 1590 1591 1611 1612
1613 1614 1615 1627 1628 1629 1630 1631 1637 1638 1639 1640 1641 1661 1662
1663 1664 1665 1685 1686 1687 1688 1689 1699 1700 1701 1702 1703 1723 1724
1725 1726 1727 1733 1734 1735 1736 1737 1755 1756 1757 1758 1759 1762 1763
1764 1765 1766 1776 1777 1778 1779 1780 1788 1789 1790 1791 1792 1804 1805
1806 1807 1808 1821 1822 1823 1824 1825 1831 1832 1833 1834 1835 1855 1856
1857 1858 1859 1874 1875 1876 1877 1878 1898 1899 1900 1901 1902 1905 1906
1907 1908 1909 1915 1916 1917 1918 1919 1939 1940 1941 1942 1943 1958 1959
1960
[ SideChain ]
   6    7    8    9   10   11   12   13   14   15   16   17   18   19   20
  21   22   28   29   30   31   32   33   34   35   36   37   38   44   45
  46   47   48   49   50   51   52   53   54   55   56   57   58   64   65
  71   72   73   74   75   76   77   78   79   80   81   82   83   84   85
  86   87   88   89   95   96   97   98   99  105  106  107  108  109  110
 111  112  113  114  120  121  122  123  124  125  126  127  128  129  130
 131  132  133  139  140  141  142  143  149  150  151  152  153  159  160
 161  162  163  169  170  171  172  173  174  175  176  177  178  179  180
 186  187  188  189  190  191  192  193  194  195  196  197  198  199  200
 201  202  208  209  210  211  212  213  214  215  216  217  218  219  220
 221  222  223  224  225  226  232  233  234  235  236  237  238  239  240
 241  242  243  249  250  256  257  258  259  260  261  262  263  264  265
 266  267  268  269  275  276  277  278  279  280  281  287  288  289  290
 291  292  293  294  295  301  302  303  304  305  306  307  308  309  310
 311  312  313  314  315  316  322  323  324  325  326  327  328  329  330
 331  332  333  334  335  336  337  338  339  340  346  347  353  354  355
 356  357  358  359  360  361  362  363  364  365  366  367  368  374  375
 376  377  378  379  385  386  387  388  389  390  391  392  393  394  395
 396  397  398  404  405  411  412  413  414  415  416  417  418  419  425
 426  427  428  429  430  431  432  433  434  435  436  437  438  439  440
 441  442  443  449  450  451  452  453  454  455  456  457  458  459  465
 466  467  468  469  475  476  477  478  479  485  486  487  488  489  495
 496  497  498  499  500  501  502  503  504  505  506  507  508  509  510
 511  517  518  519  520  521  522  523  524  525  526  527  528  529  530
 531  537  538  539  540  541  542  543  544  545  546  552  553  554  555
 556  557  563  564  565  566  567  568  569  570  571  577  578  579  580
 581  582  583  584  585  586  587  588  589  590  591  597  598  599  600
 601  602  603  604  605  611  612  613  614  615  616  617  618  619  625
 626  627  628  629  630  631  632  633  634  635  636  642  643  644  645
 646  652  653  654  655  656  657  658  659  660  666  667  668  669  670
 671  672  673  674  680  681  682  683  684  685  686  687  688  689  690
 691  692  693  694  695  696  697  698  704  705  706  707  708  709  710
 711  712  718  719  720  721  722  723  724  725  726  732  733  734  735
 736  737  738  744  745  751  752  753  754  755  756  762  763  764  765
 766  767  768  769  770  776  777  778  779  780  781  782  788  789  790
 791  792  793  794  795  796  797  798  799  800  801  802  803  809  810
 816  817  818  819  820  821  822  823  824  825  826  827  828  829  835
 836  837  838  839  840  841  842  843  844  845  846  847  848  854  855
 856  857  858  859  860  861  862  863  864  865  871  872  873  874  875
 876  877  878  879  880  881  882  883  884  890  891  892  893  894  895
 896  897  898  904  905  906  907  908  909  915  916  917  918  919  920
 921  922  923  924  925  926  927  928  929  930  931  932  933  939  940
 941  942  943  944  945  946  947  948  949  950  951  952  953  954  955
 956  957  963  964  965  966  967  968  969  970  971  972  973  974  975
 976  977  978  979  980  981  987  988  989  990  991  997  998  999 1000
1001 1002 1003 1004 1005 1011 1012 1013 1014 1015 1016 1017 1023 1024 1030
1031 1032 1033 1034 1035 1036 1037 1038 1039 1040 1041 1042 1043 1044 1045
1046 1047 1048 1054 1055 1056 1057 1058 1059 1060 1061 1062 1066 1067 1068
1069 1070 1071 1072 1073 1074 1076 1082 1083 1089 1090 1091 1092 1093 1094
1100 1101 1102 1103 1104 1105 1106 1107 1108 1109 1110 1111 1112 1113 1114
1115 1116 1117 1118 1124 1125 1126 1127 1128 1129 1130 1131 1132 1138 1139
1140 1141 1142 1143 1144 1145 1146 1147 1148 1149 1150 1151 1157 1158 1159
1160 1161 1167 1168 1169 1170 1171 1172 1173 1174 1175 1181 1182 1183 1184
1185 1186 1187 1188 1189 1190 1191 1192 1193 1194 1198 1199 1200 1201 1202
1203 1204 1205 1206 1208 1214 1215 1216 1217 1218 1224 1225 1226 1227 1228
1229 1235 1236 1237 1238 1239 1245 1246 1247 1248 1249 1250 1251 1252 1253
1254 1255 1256 1257 1258 1264 1265 1266 1267 1268 1269 1270 1271 1272 1273
1274 1275 1276 1277 1283 1284 1285 1286 1287 1288 1294 1295 1296 1297 1298
1299 1305 1306 1307 1308 1309 1310 1311 1317 1318 1319 1320 1321 1322 1323
1324 1325 1326 1327 1328 1329 1330 1336 1337 1338 1339 1340 1341 1342 1343
1344 1350 1351 1352 1353 1354 1360 1361 1362 1363 1364 1365 1371 1372 1373
1374 1375 1376 1377 1378 1379 1380 1381 1387 1388 1389 1390 1391 1392 1393
1394 1395 1401 1402 1403 1404 1405 1411 1412 1413 1414 1415 1421 1422 1423
1424 1425 1426 1427 1428 1429 1430 1431 1432 1433 1434 1435 1436 1437 1443
1444 1445 1446 1447 1448 1449 1450 1451 1452 1453 1454 1455 1456 1457 1458
1459 1465 1466 1467 1468 1469 1470 1471 1472 1473 1474 1475 1476 1477 1478
1484 1485 1486 1487 1488 1489 1490 1491 1492 1493 1494 1500 1501 1502 1503
1504 1505 1511 1512 1513 1514 1515 1516 1517 1523 1524 1530 1531 1532 1533
1534 1535 1536 1537 1538 1544 1545 1551 1552 1553 1554 1555 1556 1557 1558
1559 1560 1561 1562 1568 1569 1570 1571 1572 1573 1574 1575 1576 1582 1583
1584 1585 1586 1592 1593 1594 1595 1596 1597 1598 1599 1600 1601 1602 1603
1604 1605 1606 1607 1608 1609 1610 1616 1617 1618 1619 1620 1621 1622 1623
1624 1625 1626 1632 1633 1634 1635 1636 1642 1643 1644 1645 1646 1647 1648
1649 1650 1651 1652 1653 1654 1655 1656 1657 1658 1659 1660 1666 1667 1668
1669 1670 1671 1672 1673 1674 1675 1676 1677 1678 1679 1680 1681 1682 1683
1684 1690 1691 1692 1693 1694 1695 1696 1697 1698 1704 1705 1706 1707 1708
1709 1710 1711 1712 1713 1714 1715 1716 1717 1718 1719 1720 1721 1722 1728
1729 1730 1731 1732 1738 1739 1740 1741 1742 1743 1744 1745 1746 1747 1748
1749 1750 1751 1752 1753 1754 1760 1761 1767 1768 1769 1770 1771 1772 1773
1774 1775 1781 1782 1783 1784 1785 1786 1787 1793 1794 1795 1796 1797 1798
1799 1800 1801 1802 1803 1809 1810 1811 1812 1813 1814 1815 1816 1817 1818
1819 1820 1826 1827 1828 1829 1830 1836 1837 1838 1839 1840 1841 1842 1843
1844 1845 1846 1847 1848 1849 1850 1851 1852 1853 1854 1860 1861 1862 1863
1864 1865 1866 1867 1868 1869 1870 1871 1872 1873 1879 1880 1881 1882 1883
1884 1885 1886 1887 1888 1889 1890 1891 1892 1893 1894 1895 1896 1897 1903
1904 1910 1911 1912 1913 1914 1920 1921 1922 1923 1924 1925 1926 1927 1928
1929 1930 1931 1932 1933 1934 1935 1936 1937 1938 1944 1945 1946 1947 1948
1949 1950 1951 1952 1953 1954 1955 1956 1957
[ SideChain-H ]
   7   10   13   16   19   29   31   35   45   48   49   51   53   55   57
  72   75   78   81   83   84   87   96   99  106  109  112  113  114  121
 124  126  130  140  150  160  170  173  176  177  187  190  193  196  199
 209  212  215  218  220  221  224  233  236  237  238  240  242  257  260
 262  266  276  279  280  281  288  291  292  293  302  305  306  308  310
 311  313  315  323  326  329  332  334  335  338  354  357  358  360  362
 363  365  367  375  378  386  389  391  395  412  415  416  417  426  429
 430  432  434  435  437  439  441  443  450  452  456  466  469  476  486
 496  499  502  505  508  518  521  522  524  526  528  530  538  541  544
 545  546  553  556  564  567  568  569  578  581  582  584  586  588  590
 598  601  602  603  612  614  618  626  629  632  633  634  643  653  655
 659  667  670  671  672  681  684  687  690  692  693  696  705  708  709
 710  719  721  725  733  736  737  738  752  755  763  765  769  777  780
 781  782  789  792  793  795  797  798  800  802  817  819  823  826  836
 839  841  845  855  858  861  862  863  872  874  878  881  891  894  895
 896  905  908  916  919  922  925  927  928  931  940  943  944  946  948
 949  951  953  955  957  964  967  968  970  972  973  975  977  979  981
 988  991  998 1001 1002 1003 1012 1015 1016 1017 1031 1034 1037 1040 1042
1043 1046 1055 1057 1061 1066 1069 1072 1090 1093 1101 1104 1107 1110 1112
1113 1116 1125 1128 1129 1130 1139 1142 1144 1148 1158 1161 1168 1171 1172
1173 1182 1184 1188 1191 1198 1201 1204 1215 1218 1225 1228 1236 1246 1249
1251 1255 1265 1268 1270 1274 1284 1287 1295 1298 1306 1309 1310 1311 1318
1320 1324 1327 1337 1339 1343 1351 1361 1364 1372 1374 1378 1388 1391 1392
1393 1402 1405 1412 1422 1425 1428 1431 1434 1444 1447 1450 1453 1456 1466
1468 1472 1475 1485 1487 1491 1501 1504 1512 1515 1516 1517 1531 1534 1535
1536 1552 1555 1558 1559 1569 1572 1573 1574 1583 1593 1596 1597 1599 1601
1602 1604 1606 1608 1610 1617 1619 1623 1633 1643 1646 1647 1649 1651 1652
1654 1656 1658 1660 1667 1670 1673 1676 1678 1679 1682 1691 1694 1695 1696
1705 1708 1711 1714 1716 1717 1720 1729 1732 1739 1742 1745 1748 1751 1768
1770 1774 1782 1785 1786 1787 1794 1796 1800 1810 1813 1816 1817 1818 1827
1837 1840 1841 1843 1845 1846 1848 1850 1852 1854 1861 1863 1867 1870 1880
1883 1886 1889 1891 1892 1895 1911 1914 1921 1924 1927 1930 1932 1933 1936
1945 1948 1950 1954
[ Prot-Masses ]
   1    2    3    4    5    6    7    8    9   10   11   12   13   14   15
  16   17   18   19   20   21   22   23   24   25   26   27   28   29   30
  31   32   33   34   35   36   37   38   39   40   41   42   43   44   45
  46   47   48   49   50   51   52   53   54   55   56   57   58   59   60
  61   62   63   64   65   66   67   68   69   70   71   72   73   74   75
  76   77   78   79   80   81   82   83   84   85   86   87   88   89   90
  91   92   93   94   95   96   97   98   99  100  101  102  103  104  105
 106  107  108  109  110  111  112  113  114  115  116  117  118  119  120
 121  122  123  124  125  126  127  128  129  130  131  132  133  134  135
 136  137  138  139  140  141  142  143  144  145  146  147  148  149  150
 151  152  153  154  155  156  157  158  159  160  161  162  163  164  165
 166  167  168  169  170  171  172  173  174  175  176  177  178  179  180
 181  182  183  184  185  186  187  188  189  190  191  192  193  194  195
 196  197  198  199  200  201  202  203  204  205  206  207  208  209  210
 211  212  213  214  215  216  217  218  219  220  221  222  223  224  225
 226  227  228  229  230  231  232  233  234  235  236  237  238  239  240
 241  242  243  244  245  246  247  248  249  250  251  252  253  254  255
 256  257  258  259  260  261  262  263  264  265  266  267  268  269  270
 271  272  273  274  275  276  277  278  279  280  281  282  283  284  285
 286  287  288  289  290  291  292  293  294  295  296  297  298  299  300
 301  302  303  304  305  306  307  308  309  310  311  312  313  314  315
 316  317  318  319  320  321  322  323  324  325  326  327  328  329  330
 331  332  333  334  335  336  337  338  339  340  341  342  343  344  345
 346  347  348  349  350  351  352  353  354  355  356  357  358  359  360
 361  362  363  364  365  366  367  368  369  370  371  372  373  374  375
 376  377  378  379  380  381  382  383  384  385  386  387  388  389  390
 391  392  393  394  395  396  397  398  399  400  401  402  403  404  405
 406  407  408  409  410  411  412  413  414  415  416  417  418  419  420
 421  422  423  424  425  426  427  428  429  430  431  432  433  434  435
 436  437  438  439  440  441  442  443  444  445  446  447  448  449  450
 451  452  453  454  455  456  457  458  459  460  461  462  463  464  465
 466  467  468  469  470  471  472  473  474  475  476  477  478  479  480
 481  482  483  484  485  486  487  488  489  490  491  492  493  494  495
 496  497  498  499  500  501  502  503  504  505  506  507  508  509  510
 511  512  513  514  515  516  517  518  519  520  521  522  523  524  525
 526  527  528  529  530  531  532  533  534  535  536  537  538  539  540
 541  542  543  544  545  546  547  548  549  550  551  552  553  554  555
 556  557  558  559  560  561  562  563  564  565  566  567  568  569  570
 571  572  573  574  575  576  577  578  579  580  581  582  583  584  585
 586  587  588  589  590  591  592  593  594  595  596  597  598  599  600
 601  602  603  604  605  606  607  608  609  610  611  612  613  614  615
 616  617  618  619  620  621  622  623  624  625  626  627  628  629  630
 631  632  633  634  635  636  637  638  639  640  641  642  643  644  645
 646  647  648  649  650  651  652  653  654  655  656  657  658  659  660
 661  662  663  664  665  666  667  668  669  670  671  672  673  674  675
 676  677  678  679  680  681  682  683  684  685  686  687  688  689  690
 691  692  693  694  695  696  697  698  699  700  701  702  703  704  705
 706  707  708  709  710  711  712  713  714  715  716  717  718  719  720
 721  722  723  724  725  726  727  728  729  730  731  732  733  734  735
 736  737  738  739  740  741  742  743  744  745  746  747  748  749  750
 751  752  753  754  755  756  757  758  759  760  761  762  763  764  765
 766  767  768  769  770  771  772  773  774  775  776  777  778  779  780
 781  782  783  784  785  786  787  788  789  790  791  792  793  794  795
 796  797  798  799  800  801  802  803  804  805  806  807  808  809  810
 811  812  813  814  815  816  817  818  819  820  821  822  823  824  825
 826  827  828  829  830  831  832  833  834  835  836  837  838  839  840
 841  842  843  844  845  846  847  848  849  850  851  852  853  854  855
 856  857  858  859  860  861  862  863  864  865  866  867  868  869  870
 871  872  873  874  875  876  877  878  879  880  881  882  883  884  885
 886  887  888  889  890  891  892  893  894  895  896  897  898  899  900
 901  902  903  904  905  906  907  908  909  910  911  912  913  914  915
 916  917  918  919  920  921  922  923  924  925  926  927  928  929  930
 931  932  933  934  935  936  937  938  939  940  941  942  943  944  945
 946  947  948  949  950  951  952  953  954  955  956  957  958  959  960
 961  962  963  964  965  966  967  968  969  970  971  972  973  974  975
 976  977  978  979  980  981  982  983  984  985  986  987  988  989  990
 991  992  993  994  995  996  997  998  999 1000 1001 1002 1003 1004 1005
1006 1007 1008 1009 1010 1011 1012 1013 1014 1015 1016 1017 1018 1019 1020
1021 1022 1023 1024 1025 1026 1027 1028 1029 1030 1031 1032 1033 1034 1035
1036 1037 1038 1039 1040 1041 1042 1043 1044 1045 1046 1047 1048 1049 1050
1051 1052 1053 1054 1055 1056 1057 1058 1059 1060 1061 1062 1063 1064 1065
1066 1067 1068 1069 1070 1071 1072 1073 1074 1075 1076 1077 1078 1079 1080
1081 1082 1083 1084 1085 1086 1087 1088 1089 1090 1091 1092 1093 1094 1095
1096 1097 1098 1099 1100 1101 1102 1103 1104 1105 1106 1107 1108 1109 1110
1111 1112 1113 1114 1115 1116 1117 1118 1119 1120 1121 1122 1123 1124 1125
1126 1127 1128 1129 1130 1131 1132 1133 1134 1135 1136 1137 1138 1139 1140
1141 1142 1143 1144 1145 1146 1147 1148 1149 1150 1151 1152 1153 1154 1155
1156 1157 1158 1159 1160 1161 1162 1163 1164 1165 1166 1167 1168 1169 1170
1171 1172 1173 1174 1175 1176 1177 1178 1179 1180 1181 1182 1183 1184 1185
1186 1187 1188 1189 1190 1191 1192 1193 1194 1195 1196 1197 1198 1199 1200
1201 1202 1203 1204 1205 1206 1207 1208 1209 1210 1211 1212 1213 1214 1215
1216 1217 1218 1219 1220 1221 1222 1223 1224 1225 1226 1227 1228 1229 1230
1231 1232 1233 1234 1235 1236 1237 1238 1239 1240 1241 1242 1243 1244 1245
1246 1247 1248 1249 1250 1251 1252 1253 1254 1255 1256 1257 1258 1259 1260
1261 1262 1263 1264 1265 1266 1267 1268 1269 1270 1271 1272 1273 1274 1275
1276 1277 1278 1279 1280 1281 1282 1283 1284 1285 1286 1287 1288 1289 1290
1291 1292 1293 1294 1295 1296 1297 1298 1299 1300 1301 1302 1303 1304 1305
1306 1307 1308 1309 1310 1311 1312 1313 1314 1315 1316 1317 1318 1319 1320
1321 1322 1323 1324 1325 1326 1327 1328 1329 1330 1331 1332 1333 1334 1335
1336 1337 1338 1339 1340 1341 1342 1343 1344 1345 1346 1347 1348 1349 1350
1351 1352 1353 1354 1355 1356 1357 1358 1359 1360 1361 1362 1363 1364 1365
1366 1367 1368 1369 1370 1371 1372 1373 1374 1375 1376 1377 1378 1379 1380
1381 1382 1383 1384 1385 1386 1387 1388 1389 1390 1391 1392 1393 1394 1395
1396 1397 1398 1399 1400 1401 1402 1403 1404 1405 1406 1407 1408 1409 1410
1411 1412 1413 1414 1415 1416 1417 1418 1419 1420 1421 1422 1423 1424 1425
1426 1427 1428 1429 1430 1431 1432 1433 1434 1435 1436 1437 1438 1439 1440
1441 1442 1443 1444 1445 1446 1447 1448 1449 1450 1451 1452 1453 1454 1455
1456 1457 1458 1459 1460 1461 1462 1463 1464 1465 1466 1467 1468 1469 1470
1471 1472 1473 1474 1475 1476 1477 1478 1479 1480 1481 1482 1483 1484 1485
1486 1487 1488 1489 1490 1491 1492 1493 1494 1495 1496 1497 1498 1499 1500
1501 1502 1503 1504 1505 1506 1507 1508 1509 1510 1511 1512 1513 1514 1515
1516 1517 1518 1519 1520 1521 1522 1523 1524 1525 1526 1527 1528 1529 1530
1531 1532 1533 1534 1535 1536 1537 1538 1539 1540 1541 1542 1543 1544 1545
1546 1547 1548 1549 1550 1551 1552 1553 1554 1555 1556 1557 1558 1559 1560
1561 1562 1563 1564 1565 1566 1567 1568 1569 1570 1571 1572 1573 1574 1575
1576 1577 1578 1579 1580 1581 1582 1583 1584 1585 1586 1587 1588 1589 1590
1591 1592 1593 1594 1595 1596 1597 1598 1599 1600 1601 1602 1603 1604 1605
1606 1607 1608 1609 1610 1611 1612 1613 1614 1615 1616 1617 1618 1619 1620
1621 1622 1623 1624 1625 1626 1627 1628 1629 1630 1631 1632 1633 1634 1635
1636 1637 1638 1639 1640 1641 1642 1643 1644 1645 1646 1647 1648 1649 1650
1651 1652 1653 1654 1655 1656 1657 1658 1659 1660 1661 1662 1663 1664 1665
1666 1667 1668 1669 1670 1671 1672 1673 1674 1675 1676 1677 1678 1679 1680
1681 1682 1683 1684 1685 1686 1687 1688 1689 1690 1691 1692 1693 1694 1695
1696 1697 1698 1699 1700 1701 1702 1703 1704 1705 1706 1707 1708 1709 1710
1711 1712 1713 1714 1715 1716 1717 1718 1719 1720 1721 1722 1723 1724 1725
1726 1727 1728 1729 1730 1731 1732 1733 1734 1735 1736 1737 1738 1739 1740
1741 1742 1743 1744 1745 1746 1747 1748 1749 1750 1751 1752 1753 1754 1755
1756 1757 1758 1759 1760 1761 1762 1763 1764 1765 1766 1767 1768 1769 1770
1771 1772 1773 1774 1775 1776 1777 1778 1779 1780 1781 1782 1783 1784 1785
1786 1787 1788 1789 1790 1791 1792 1793 1794 1795 1796 1797 1798 1799 1800
1801 1802 1803 1804 1805 1806 1807 1808 1809 1810 1811 1812 1813 1814 1815
1816 1817 1818 1819 1820 1821 1822 1823 1824 1825 1826 1827 1828 1829 1830
1831 1832 1833 1834 1835 1836 1837 1838 1839 1840 1841 1842 1843 1844 1845
1846 1847 1848 1849 1850 1851 1852 1853 1854 1855 1856 1857 1858 1859 1860
1861 1862 1863 1864 1865 1866 1867 1868 1869 1870 1871 1872 1873 1874 1875
1876 1877 1878 1879 1880 1881 1882 1883 1884 1885 1886 1887 1888 1889 1890
1891 1892 1893 1894 1895 1896 1897 1898 1899 1900 1901 1902 1903 1904 1905
1906 1907 1908 1909 1910 1911 1912 1913 1914 1915 1916 1917 1918 1919 1920
1921 1922 1923 1924 1925 1926 1927 1928 1929 1930 1931 1932 1933 1934 1935
1936 1937 1938 1939 1940 1941 1942 1943 1944 1945 1946 1947 1948 1949 1950
1951 1952 1953 1954 1955 1956 1957 1958 1959 1960
[ non-Protein ]
1961 1962 1963 1964 1965 1966 1967 1968 1969 1970 1971
[ Other ]
1961 1962 1963 1964 1965 1966 1967 1968 1969 1970 1971
[ Ligand ]
1961 1962 1963 1964 1965 1966 1967 1968 1969 1970 1971