[ moleculetype ]
; Name            nrexcl
LIG          3

[ atoms ]
;   nr       type  resnr residue  atom   cgnr    charge       mass  typeB    chargeB      massB
; residue    1 LIG rtp LIG q 0.0
    1         c3      1    LIG      C      1 -0.09310000  12.010000   ; qtot -0.093100
    2         c3      1    LIG     C1      2 -0.08140000  12.010000   ; qtot -0.174500
    3         c3      1    LIG     C2      3 -0.09310000  12.010000   ; qtot -0.267600
    4         hc      1    LIG      H      4 0.03236700   1.008000   ; qtot -0.235233
    5         hc      1    LIG     H1      5 0.03236700   1.008000   ; qtot -0.202866
    6         hc      1    LIG     H2      6 0.03236700   1.008000   ; qtot -0.170499
    7         hc      1    LIG     H3      7 0.03670000   1.008000   ; qtot -0.133799
    8         hc      1    LIG     H4      8 0.03670000   1.008000   ; qtot -0.097099
    9         hc      1    LIG     H5      9 0.03236700   1.008000   ; qtot -0.064732
   10         hc      1    LIG     H6     10 0.03236700   1.008000   ; qtot -0.032365
   11         hc      1    LIG     H7     11 0.03236700   1.008000   ; qtot 0.000002

[ bonds ]
;    ai     aj funct         c0         c1         c2         c3
      1      2     1   0.15354 191535.152000
      2      3     1   0.15354 191535.152000
      1      4     1   0.10962 288905.200000
      1      5     1   0.10962 288905.200000
      1      6     1   0.10962 288905.200000
      2      7     1   0.10962 288905.200000
      2      8     1   0.10962 288905.200000
      3      9     1   0.10962 288905.200000
      3     10     1   0.10962 288905.200000
      3     11     1   0.10962 288905.200000

[ pairs ]
;    ai     aj funct         c0         c1         c2         c3
      1      9     1
      1     10     1
      1     11     1
      4      3     1
      5      3     1
      6      3     1
      4      7     1
      4      8     1
      5      7     1
      5      8     1
      6      7     1
      6      8     1
      7      9     1
      7     10     1
      7     11     1
      8      9     1
      8     10     1
      8     11     1

[ angles ]
;    ai     aj     ak funct         c0         c1         c2         c3
      1      2      3     1   112.6300483 500.992160
      1      2      7     1   109.6800468 362.083360
      1      2      8     1   109.6800468 362.083360
      2      1      4     1   109.6800468 362.083360
      2      1      5     1   109.6800468 362.083360
      2      1      6     1   109.6800468 362.083360
      2      3      9     1   109.6800468 362.083360
      2      3     10     1   109.6800468 362.083360
      2      3     11     1   109.6800468 362.083360
      3      2      7     1   109.6800468 362.083360
      3      2      8     1   109.6800468 362.083360
      4      1      5     1   107.7300462 299.574400
      4      1      6     1   107.7300462 299.574400
      5      1      6     1   107.7300462 299.574400
      7      2      8     1   107.7300462 299.574400
      9      3     10     1   107.7300462 299.574400
      9      3     11     1   107.7300462 299.574400
     10      3     11     1   107.7300462 299.574400

[ dihedrals ]
;    ai     aj     ak     al funct         c0         c1         c2         c3         c4         c5
      1      2      3      9     1  0.0000000  0.5439200  3
      1      2      3     10     1  0.0000000  0.5439200  3
      1      2      3     11     1  0.0000000  0.5439200  3
      4      1      2      3     1  0.0000000  0.5439200  3
      5      1      2      3     1  0.0000000  0.5439200  3
      6      1      2      3     1  0.0000000  0.5439200  3
      4      1      2      7     1  0.0000000  0.5020800  3
      4      1      2      8     1  0.0000000  0.5020800  3
      5      1      2      7     1  0.0000000  0.5020800  3
      5      1      2      8     1  0.0000000  0.5020800  3
      6      1      2      7     1  0.0000000  0.5020800  3
      6      1      2      8     1  0.0000000  0.5020800  3
      7      2      3      9     1  0.0000000  0.5020800  3
      7      2      3     10     1  0.0000000  0.5020800  3
      7      2      3     11     1  0.0000000  0.5020800  3
      8      2      3      9     1  0.0000000  0.5020800  3
      8      2      3     10     1  0.0000000  0.5020800  3
      8      2      3     11     1  0.0000000  0.5020800  3
